 *******************************************************************************
 ** Site#: 9752         For non-commercial use only    Version 18.184M 64BITS **
 *******************************************************************************
 ** Cite this program as: MOPAC2016, Version: 18.184M, James J. P. Stewart,   **
 ** Stewart Computational Chemistry, web: HTTP://OpenMOPAC.net. Days left: 284**
 *******************************************************************************
 **                                                                           **
 **                                MOPAC2016                                  **
 **                                                                           **
 *******************************************************************************

                              PM6-D3H4 CALCULATION RESULTS

 *******************************************************************************
 *  CALCULATION DONE:                                Sat Sep 22 10:35:26 2018  *
 *  PM6-D3H4   - CORRECT DISPERSION AND HYDROGEN BOND TERMS USING THE D3H4 METHOD
 *  START_RES  - STARTING RESIDUE NUMBERS DEFINED
 *  Keyword:   START_RES=(1) 
 *
 *
 *
 *                 CHARGE ON SYSTEM = 0
 *
 *
 *
 *  T=         - A TIME OF 172800.0 SECONDS REQUESTED
 *  DUMP=N     - RESTART FILE WRITTEN EVERY  7200.000 SECONDS
 *******************************************************************************
 START_RES=(1) PM6-D3H4 charge=0
 Generated by weighted sterimol script

   ATOM                 CHEMICAL                   X               Y               Z
  NUMBER                 SYMBOL               (ANGSTROMS)     (ANGSTROMS)     (ANGSTROMS)
 
     1       C(HETATM    1  C01 UNK     1)    0.00000000  *   0.00000000  *   0.00000000  *
     2       C(HETATM    2  C02 UNK     1)    1.17100000  *   0.97500000  *  -0.22000000  *
     3       C(HETATM    3  C03 UNK     1)    1.75200000  *   1.39600000  *   1.14300000  *
     4       C(HETATM    4  C04 UNK     1)    3.27900000  *   1.55400000  *   1.02300000  *
     5       C(HETATM    5  C05 UNK     1)    3.93000000  *   0.16400000  *   0.88900000  *
     6       H(HETATM    6  H01 UNK     1)   -0.78500000  *   0.24400000  *  -0.65300000  *
     7       H(HETATM    7  H02 UNK     1)    0.32200000  *  -0.98100000  *  -0.19000000  *
     8       H(HETATM    8  H03 UNK     1)   -0.33500000  *   0.07300000  *   0.99300000  *
     9       H(HETATM    9  H04 UNK     1)    4.97200000  *   0.27200000  *   0.80900000  *
    10       H(HETATM   10  H07 UNK     1)    0.82800000  *   1.82500000  *  -0.73100000  *
    11       H(HETATM   11  H08 UNK     1)    1.91700000  *   0.50300000  *  -0.78700000  *
    12       H(HETATM   12  H09 UNK     1)    1.53200000  *   0.66100000  *   1.86000000  *
    13       H(HETATM   13  H10 UNK     1)    1.32900000  *   2.31000000  *   1.43800000  *
    14       H(HETATM   14  H11 UNK     1)    3.65100000  *   2.03400000  *   1.87800000  *
    15       H(HETATM   15  H12 UNK     1)    3.50500000  *   2.12800000  *   0.17300000  *
    16       H(HETATM   16  H14 UNK     1)    3.56100000  *  -0.31500000  *   0.03100000  *
    17       H(HETATM   17  H15 UNK     1)    3.70300000  *  -0.41200000  *   1.73800000  *
 

 General Reference for PM6:
 "Optimization of Parameters for Semiempirical Methods V: Modification of NDDO Approximations
 and Application to 70 Elements", J. J. P. Stewart, J. Mol. Mod., 13, 1173-1213 (2007)
 URL: http://www.springerlink.com/content/ar33482301010477/fulltext.pdf

           Empirical Formula: C5 H12  =    17 atoms



      MOLECULAR POINT GROUP   :   C1  


      RHF CALCULATION, NO. OF DOUBLY OCCUPIED LEVELS = 16


          Geometry optimization using EF

          DIAGONAL MATRIX USED AS START HESSIAN

 CYCLE:     1 TIME:   0.008 TIME LEFT:  2.00D  GRAD.:   175.002 HEAT:  5.728263
 CYCLE:     2 TIME:   0.004 TIME LEFT:  2.00D  GRAD.:   105.834 HEAT: -6.889114
 CYCLE:     3 TIME:   0.008 TIME LEFT:  2.00D  GRAD.:    46.736 HEAT: -10.11765
 CYCLE:     4 TIME:   0.008 TIME LEFT:  2.00D  GRAD.:    30.781 HEAT: -10.82051
 CYCLE:     5 TIME:   0.000 TIME LEFT:  2.00D  GRAD.:    28.209 HEAT: -11.07294
 CYCLE:     6 TIME:   0.008 TIME LEFT:  2.00D  GRAD.:    16.350 HEAT: -11.35634
 CYCLE:     7 TIME:   0.004 TIME LEFT:  2.00D  GRAD.:    11.095 HEAT: -11.48556
 CYCLE:     8 TIME:   0.004 TIME LEFT:  2.00D  GRAD.:    10.679 HEAT: -11.63914
 CYCLE:     9 TIME:   0.004 TIME LEFT:  2.00D  GRAD.:    10.181 HEAT: -11.81126
 CYCLE:    10 TIME:   0.004 TIME LEFT:  2.00D  GRAD.:    10.375 HEAT: -11.98862
 CYCLE:    11 TIME:   0.004 TIME LEFT:  2.00D  GRAD.:    15.632 HEAT: -12.08790
 CYCLE:    12 TIME:   0.004 TIME LEFT:  2.00D  GRAD.:    16.353 HEAT: -12.15518
 CYCLE:    13 TIME:   0.004 TIME LEFT:  2.00D  GRAD.:    11.331 HEAT: -12.28136
 CYCLE:    14 TIME:   0.004 TIME LEFT:  2.00D  GRAD.:     9.002 HEAT: -12.36591
 CYCLE:    15 TIME:   0.000 TIME LEFT:  2.00D  GRAD.:     9.407 HEAT: -12.44887
 CYCLE:    16 TIME:   0.004 TIME LEFT:  2.00D  GRAD.:     8.695 HEAT: -12.54207
 CYCLE:    17 TIME:   0.004 TIME LEFT:  2.00D  GRAD.:     8.137 HEAT: -12.61557
 CYCLE:    18 TIME:   0.004 TIME LEFT:  2.00D  GRAD.:     7.294 HEAT: -12.68072
 CYCLE:    19 TIME:   0.004 TIME LEFT:  2.00D  GRAD.:     5.847 HEAT: -12.76003
 CYCLE:    20 TIME:   0.000 TIME LEFT:  2.00D  GRAD.:     7.209 HEAT: -12.82528
 CYCLE:    21 TIME:   0.004 TIME LEFT:  2.00D  GRAD.:     7.739 HEAT: -12.90163
 CYCLE:    22 TIME:   0.004 TIME LEFT:  2.00D  GRAD.:     7.068 HEAT: -12.99840
 CYCLE:    23 TIME:   0.004 TIME LEFT:  2.00D  GRAD.:     9.159 HEAT: -13.09869
 CYCLE:    24 TIME:   0.000 TIME LEFT:  2.00D  GRAD.:     6.427 HEAT: -13.16727
 CYCLE:    25 TIME:   0.004 TIME LEFT:  2.00D  GRAD.:     5.882 HEAT: -13.24567
 CYCLE:    26 TIME:   0.004 TIME LEFT:  2.00D  GRAD.:     5.863 HEAT: -13.36535
 CYCLE:    27 TIME:   0.004 TIME LEFT:  2.00D  GRAD.:     6.106 HEAT: -13.42566
 CYCLE:    28 TIME:   0.004 TIME LEFT:  2.00D  GRAD.:     5.575 HEAT: -13.49833
 CYCLE:    29 TIME:   0.012 TIME LEFT:  2.00D  GRAD.:     6.471 HEAT: -13.55163
 CYCLE:    30 TIME:   0.004 TIME LEFT:  2.00D  GRAD.:     5.431 HEAT: -13.59295
 CYCLE:    31 TIME:   0.004 TIME LEFT:  2.00D  GRAD.:     4.646 HEAT: -13.63408
 CYCLE:    32 TIME:   0.000 TIME LEFT:  2.00D  GRAD.:     5.136 HEAT: -13.71981
 CYCLE:    33 TIME:   0.004 TIME LEFT:  2.00D  GRAD.:     4.028 HEAT: -13.75136
 CYCLE:    34 TIME:   0.004 TIME LEFT:  2.00D  GRAD.:     2.467 HEAT: -13.77491
 CYCLE:    35 TIME:   0.004 TIME LEFT:  2.00D  GRAD.:     2.614 HEAT: -13.79421
 CYCLE:    36 TIME:   0.004 TIME LEFT:  2.00D  GRAD.:     2.690 HEAT: -13.80685
 CYCLE:    37 TIME:   0.004 TIME LEFT:  2.00D  GRAD.:     2.357 HEAT: -13.81809
 CYCLE:    38 TIME:   0.004 TIME LEFT:  2.00D  GRAD.:     2.192 HEAT: -13.83565
 CYCLE:    39 TIME:   0.004 TIME LEFT:  2.00D  GRAD.:     2.985 HEAT: -13.85696
 CYCLE:    40 TIME:   0.004 TIME LEFT:  2.00D  GRAD.:     3.108 HEAT: -13.87682
 CYCLE:    41 TIME:   0.004 TIME LEFT:  2.00D  GRAD.:     3.427 HEAT: -13.90408
 CYCLE:    42 TIME:   0.004 TIME LEFT:  2.00D  GRAD.:     3.839 HEAT: -13.93379
 CYCLE:    43 TIME:   0.004 TIME LEFT:  2.00D  GRAD.:     5.136 HEAT: -13.97696
 CYCLE:    44 TIME:   0.004 TIME LEFT:  2.00D  GRAD.:     6.742 HEAT: -14.02188
 CYCLE:    45 TIME:   0.000 TIME LEFT:  2.00D  GRAD.:     4.566 HEAT: -14.07873
 CYCLE:    46 TIME:   0.008 TIME LEFT:  2.00D  GRAD.:     5.303 HEAT: -14.13849
 CYCLE:    47 TIME:   0.004 TIME LEFT:  2.00D  GRAD.:     3.046 HEAT: -14.14978
 CYCLE:    48 TIME:   0.004 TIME LEFT:  2.00D  GRAD.:     1.791 HEAT: -14.16369
 CYCLE:    49 TIME:   0.004 TIME LEFT:  2.00D  GRAD.:     1.574 HEAT: -14.17182
 CYCLE:    50 TIME:   0.004 TIME LEFT:  2.00D  GRAD.:     2.370 HEAT: -14.18151
 CYCLE:    51 TIME:   0.004 TIME LEFT:  2.00D  GRAD.:     1.783 HEAT: -14.18807
 CYCLE:    52 TIME:   0.000 TIME LEFT:  2.00D  GRAD.:     1.821 HEAT: -14.19758
 CYCLE:    53 TIME:   0.004 TIME LEFT:  2.00D  GRAD.:     2.306 HEAT: -14.20757
 CYCLE:    54 TIME:   0.008 TIME LEFT:  2.00D  GRAD.:     2.970 HEAT: -14.22586
 CYCLE:    55 TIME:   0.004 TIME LEFT:  2.00D  GRAD.:     3.771 HEAT: -14.25627
 CYCLE:    56 TIME:   0.004 TIME LEFT:  2.00D  GRAD.:     4.583 HEAT: -14.29303
 CYCLE:    57 TIME:   0.008 TIME LEFT:  2.00D  GRAD.:     4.738 HEAT: -14.34854
 CYCLE:    58 TIME:   0.020 TIME LEFT:  2.00D  GRAD.:     5.681 HEAT: -14.38988
 CYCLE:    59 TIME:   0.012 TIME LEFT:  2.00D  GRAD.:     5.131 HEAT: -14.42890
 CYCLE:    60 TIME:   0.004 TIME LEFT:  2.00D  GRAD.:     4.061 HEAT: -14.46839
 CYCLE:    61 TIME:   0.000 TIME LEFT:  2.00D  GRAD.:     5.429 HEAT: -14.52283
 CYCLE:    62 TIME:   0.004 TIME LEFT:  2.00D  GRAD.:     4.082 HEAT: -14.56282
 CYCLE:    63 TIME:   0.004 TIME LEFT:  2.00D  GRAD.:     4.910 HEAT: -14.61387
 CYCLE:    64 TIME:   0.004 TIME LEFT:  2.00D  GRAD.:     3.997 HEAT: -14.65334
 CYCLE:    65 TIME:   0.000 TIME LEFT:  2.00D  GRAD.:     4.239 HEAT: -14.67865
 CYCLE:    66 TIME:   0.004 TIME LEFT:  2.00D  GRAD.:     3.609 HEAT: -14.70043
 CYCLE:    67 TIME:   0.004 TIME LEFT:  2.00D  GRAD.:     2.207 HEAT: -14.71942
 CYCLE:    68 TIME:   0.004 TIME LEFT:  2.00D  GRAD.:     2.555 HEAT: -14.73435
 CYCLE:    69 TIME:   0.000 TIME LEFT:  2.00D  GRAD.:     1.880 HEAT: -14.74415
 CYCLE:    70 TIME:   0.004 TIME LEFT:  2.00D  GRAD.:     1.799 HEAT: -14.75408
 CYCLE:    71 TIME:   0.004 TIME LEFT:  2.00D  GRAD.:     1.237 HEAT: -14.75899
 CYCLE:    72 TIME:   0.000 TIME LEFT:  2.00D  GRAD.:     1.119 HEAT: -14.76195
 CYCLE:    73 TIME:   0.004 TIME LEFT:  2.00D  GRAD.:     1.197 HEAT: -14.76581
 CYCLE:    74 TIME:   0.004 TIME LEFT:  2.00D  GRAD.:     1.185 HEAT: -14.76927
 CYCLE:    75 TIME:   0.004 TIME LEFT:  2.00D  GRAD.:     1.001 HEAT: -14.77386
 CYCLE:    76 TIME:   0.004 TIME LEFT:  2.00D  GRAD.:     0.771 HEAT: -14.77532

     GRADIENT =  0.77136  IS LESS THAN CUTOFF =  1.00000



 -------------------------------------------------------------------------------
 START_RES=(1) PM6-D3H4 charge=0
 Generated by weighted sterimol script



     GEOMETRY OPTIMISED USING EIGENVECTOR FOLLOWING (EF).     
     SCF FIELD WAS ACHIEVED                                   


                              PM6-D3H4 CALCULATION
                                                       MOPAC2016 (Version: 18.184M)
                                                       Sat Sep 22 10:35:26 2018
                                                       No. of days remaining = 284




          FINAL HEAT OF FORMATION =        -14.77532 KCAL/MOL =     -61.81994 KJ/MOL


          TOTAL ENERGY            =       -776.39992 EV
          ELECTRONIC ENERGY       =      -3415.61235 EV  POINT GROUP:     C1  
          CORE-CORE REPULSION     =       2639.21244 EV
          COSMO AREA              =        134.79 SQUARE ANGSTROMS
          COSMO VOLUME            =        122.96 CUBIC ANGSTROMS

          GRADIENT NORM           =          0.77136 = 0.18708 PER ATOM
          IONIZATION POTENTIAL    =         11.036560 EV
          HOMO LUMO ENERGIES (EV) =        -11.037  4.189
          NO. OF FILLED LEVELS    =         16
          MOLECULAR WEIGHT        =         72.1498

          MOLECULAR DIMENSIONS (Angstroms)

            Atom       Atom       Distance
            H     9    H     6     6.29218
            H    16    H    13     3.33362
            H    12    H    10     2.84121


          SCF CALCULATIONS        =         84
 
          WALL-CLOCK TIME         =          0.324 SECONDS
          COMPUTATION TIME        =          0.535 SECONDS




   ATOM                 CHEMICAL                   X               Y               Z
  NUMBER                 SYMBOL               (ANGSTROMS)     (ANGSTROMS)     (ANGSTROMS)
 
     1       C(HETATM    1  C01 UNK     1)   -0.30206262  *   0.28836072  *  -0.05271782  *
     2       C(HETATM    2  C02 UNK     1)    1.15062633  *   0.75297353  *  -0.19500429  *
     3       C(HETATM    3  C03 UNK     1)    1.79072272  *   1.05382471  *   1.17091956  *
     4       C(HETATM    4  C04 UNK     1)    3.25132420  *   1.52353935  *   1.05117242  *
     5       C(HETATM    5  C05 UNK     1)    4.24128564  *   0.36889776  *   0.86934633  *
     6       H(HETATM    6  H01 UNK     1)   -0.74039576  *   0.10994530  *  -1.05968786  *
     7       H(HETATM    7  H02 UNK     1)   -0.34965163  *  -0.65579854  *   0.53295328  *
     8       H(HETATM    8  H03 UNK     1)   -0.90553286  *   1.06412496  *   0.46833361  *
     9       H(HETATM    9  H04 UNK     1)    5.26407585  *   0.77255626  *   0.70063621  *
    10       H(HETATM   10  H07 UNK     1)    1.17646530  *   1.67579310  *  -0.82330446  *
    11       H(HETATM   11  H08 UNK     1)    1.73761951  *  -0.04250931  *  -0.71239027  *
    12       H(HETATM   12  H09 UNK     1)    1.74818149  *   0.13814468  *   1.80633978  *
    13       H(HETATM   13  H10 UNK     1)    1.19736735  *   1.85395508  *   1.67473114  *
    14       H(HETATM   14  H11 UNK     1)    3.52186753  *   2.08060258  *   1.98146864  *
    15       H(HETATM   15  H12 UNK     1)    3.34341782  *   2.22453395  *   0.18746035  *
    16       H(HETATM   16  H14 UNK     1)    3.95409130  *  -0.25569784  *  -0.00488962  *
    17       H(HETATM   17  H15 UNK     1)    4.25285218  *  -0.27359576  *   1.77726018  *

                             CARTESIAN COORDINATES

   1    C       -0.302062621     0.288360721    -0.052717820
   2    C        1.150626334     0.752973530    -0.195004290
   3    C        1.790722721     1.053824712     1.170919564
   4    C        3.251324204     1.523539354     1.051172424
   5    C        4.241285636     0.368897763     0.869346325
   6    H       -0.740395763     0.109945295    -1.059687862
   7    H       -0.349651632    -0.655798542     0.532953279
   8    H       -0.905532859     1.064124958     0.468333610
   9    H        5.264075854     0.772556263     0.700636210
  10    H        1.176465298     1.675793095    -0.823304462
  11    H        1.737619508    -0.042509305    -0.712390269
  12    H        1.748181486     0.138144680     1.806339776
  13    H        1.197367348     1.853955076     1.674731143
  14    H        3.521867531     2.080602585     1.981468640
  15    H        3.343417821     2.224533947     0.187460347
  16    H        3.954091300    -0.255697845    -0.004889622
  17    H        4.252852180    -0.273595760     1.777260179


           Empirical Formula: C5 H12  =    17 atoms



      MOLECULAR POINT GROUP   :   C1  


                  EIGENVALUES  
 -28.39684 -26.28525 -23.35467 -20.79652 -19.51117 -15.86975 -15.20438 -14.70377
 -13.90277 -13.31947 -12.81802 -12.21518 -11.94843 -11.39634 -11.18521 -11.03656
   4.18879   4.50286   4.58763   4.88366   5.64216   5.73054   5.95865   5.97459
   6.04584   6.21555   6.35702   6.49942   6.61429   6.63692   6.81904   6.88385


              NET ATOMIC CHARGES AND DIPOLE CONTRIBUTIONS

  ATOM NO.                 TYPE                        CHARGE      No. of ELECS.   s-Pop       p-Pop       
    1          C(HETATM    1  C01 UNK     1)          -0.465281        4.4653     1.09153     3.37375
    2          C(HETATM    2  C02 UNK     1)          -0.221825        4.2218     1.08629     3.13553
    3          C(HETATM    3  C03 UNK     1)          -0.270694        4.2707     1.09342     3.17728
    4          C(HETATM    4  C04 UNK     1)          -0.226832        4.2268     1.08662     3.14021
    5          C(HETATM    5  C05 UNK     1)          -0.459155        4.4592     1.09106     3.36809
    6          H(HETATM    6  H01 UNK     1)           0.144642        0.8554     0.85536
    7          H(HETATM    7  H02 UNK     1)           0.147147        0.8529     0.85285
    8          H(HETATM    8  H03 UNK     1)           0.146796        0.8532     0.85320
    9          H(HETATM    9  H04 UNK     1)           0.142677        0.8573     0.85732
   10          H(HETATM   10  H07 UNK     1)           0.125148        0.8749     0.87485
   11          H(HETATM   11  H08 UNK     1)           0.127753        0.8722     0.87225
   12          H(HETATM   12  H09 UNK     1)           0.135281        0.8647     0.86472
   13          H(HETATM   13  H10 UNK     1)           0.128672        0.8713     0.87133
   14          H(HETATM   14  H11 UNK     1)           0.123875        0.8761     0.87612
   15          H(HETATM   15  H12 UNK     1)           0.127762        0.8722     0.87224
   16          H(HETATM   16  H14 UNK     1)           0.148372        0.8516     0.85163
   17          H(HETATM   17  H15 UNK     1)           0.145662        0.8543     0.85434

          NET CHARGE ON RESIDUES

      Residue         Charge  Anion or
                              Cation?
      UNK     1       +0.000
 


 DIPOLE           X         Y         Z       TOTAL
 POINT-CHG.     0.022     0.048     0.002     0.053
 HYBRID        -0.031    -0.069     0.009     0.076
 SUM           -0.008    -0.020     0.011     0.024


          ATOMIC ORBITAL ELECTRON POPULATIONS

                   Atom                  s        px        py        pz   
   C(HETATM    1  C01 UNK     1)   1.09153   1.05887   1.15441   1.16047
   C(HETATM    2  C02 UNK     1)   1.08629   0.98508   1.11755   1.03290
   C(HETATM    3  C03 UNK     1)   1.09342   1.00541   1.12848   1.04338
   C(HETATM    4  C04 UNK     1)   1.08662   0.97420   1.03547   1.13053
   C(HETATM    5  C05 UNK     1)   1.09106   1.10520   1.09886   1.16403
   H(HETATM    6  H01 UNK     1)   0.85536
   H(HETATM    7  H02 UNK     1)   0.85285
   H(HETATM    8  H03 UNK     1)   0.85320
   H(HETATM    9  H04 UNK     1)   0.85732
   H(HETATM   10  H07 UNK     1)   0.87485
   H(HETATM   11  H08 UNK     1)   0.87225
   H(HETATM   12  H09 UNK     1)   0.86472
   H(HETATM   13  H10 UNK     1)   0.87133
   H(HETATM   14  H11 UNK     1)   0.87612
   H(HETATM   15  H12 UNK     1)   0.87224
   H(HETATM   16  H14 UNK     1)   0.85163
   H(HETATM   17  H15 UNK     1)   0.85434

 **********************
 *                    *
 * JOB ENDED NORMALLY *
 *                    *
 **********************



 TOTAL JOB TIME:             0.33 SECONDS

 == MOPAC DONE ==
