 *******************************************************************************
 ** Site#: 9752         For non-commercial use only    Version 18.184M 64BITS **
 *******************************************************************************
 ** Cite this program as: MOPAC2016, Version: 18.184M, James J. P. Stewart,   **
 ** Stewart Computational Chemistry, web: HTTP://OpenMOPAC.net. Days left: 285**
 *******************************************************************************
 **                                                                           **
 **                                MOPAC2016                                  **
 **                                                                           **
 *******************************************************************************

                              PM6-D3H4 CALCULATION RESULTS

 *******************************************************************************
 *  CALCULATION DONE:                                Fri Sep 21 22:30:13 2018  *
 *  PM6-D3H4   - CORRECT DISPERSION AND HYDROGEN BOND TERMS USING THE D3H4 METHOD
 *  START_RES  - STARTING RESIDUE NUMBERS DEFINED
 *  Keyword:   START_RES=(1) 
 *
 *
 *
 *                 CHARGE ON SYSTEM = 0
 *
 *
 *
 *  T=         - A TIME OF 172800.0 SECONDS REQUESTED
 *  DUMP=N     - RESTART FILE WRITTEN EVERY  7200.000 SECONDS
 *******************************************************************************
 START_RES=(1) PM6-D3H4 charge=0
 Generated by weighted sterimol script

   ATOM                 CHEMICAL                   X               Y               Z
  NUMBER                 SYMBOL               (ANGSTROMS)     (ANGSTROMS)     (ANGSTROMS)
 
     1       C(HETATM    1  C01 UNK     1)    0.00000000  *   0.00000000  *   0.00000000  *
     2       C(HETATM    2  C02 UNK     1)    1.17100000  *   0.97500000  *  -0.22000000  *
     3       C(HETATM    3  C03 UNK     1)    1.75200000  *   1.39600000  *   1.14300000  *
     4       C(HETATM    4  C04 UNK     1)    2.52100000  *   0.21300000  *   1.76000000  *
     5       C(HETATM    5  C05 UNK     1)    1.52300000  *  -0.85900000  *   2.23200000  *
     6       H(HETATM    6  H01 UNK     1)   -0.78500000  *   0.24400000  *  -0.65300000  *
     7       H(HETATM    7  H02 UNK     1)    0.32200000  *  -0.98100000  *  -0.19000000  *
     8       H(HETATM    8  H03 UNK     1)   -0.33500000  *   0.07300000  *   0.99300000  *
     9       H(HETATM    9  H04 UNK     1)    2.04800000  *  -1.66500000  *   2.65400000  *
    10       H(HETATM   10  H07 UNK     1)    0.82800000  *   1.82500000  *  -0.73100000  *
    11       H(HETATM   11  H08 UNK     1)    1.91700000  *   0.50300000  *  -0.78700000  *
    12       H(HETATM   12  H09 UNK     1)    0.97000000  *   1.67700000  *   1.78600000  *
    13       H(HETATM   13  H10 UNK     1)    2.40500000  *   2.20700000  *   1.01100000  *
    14       H(HETATM   14  H11 UNK     1)    3.08600000  *   0.55000000  *   2.57700000  *
    15       H(HETATM   15  H12 UNK     1)    3.16300000  *  -0.20100000  *   1.03900000  *
    16       H(HETATM   16  H14 UNK     1)    0.96000000  *  -1.20000000  *   1.41300000  *
    17       H(HETATM   17  H15 UNK     1)    0.87900000  *  -0.44600000  *   2.95200000  *
 

 General Reference for PM6:
 "Optimization of Parameters for Semiempirical Methods V: Modification of NDDO Approximations
 and Application to 70 Elements", J. J. P. Stewart, J. Mol. Mod., 13, 1173-1213 (2007)
 URL: http://www.springerlink.com/content/ar33482301010477/fulltext.pdf

           Empirical Formula: C5 H12  =    17 atoms



      MOLECULAR POINT GROUP   :   C1  


      RHF CALCULATION, NO. OF DOUBLY OCCUPIED LEVELS = 16


          Geometry optimization using EF

          DIAGONAL MATRIX USED AS START HESSIAN

 CYCLE:     1 TIME:   0.008 TIME LEFT:  2.00D  GRAD.:   175.417 HEAT:  13.82108
 CYCLE:     2 TIME:   0.008 TIME LEFT:  2.00D  GRAD.:   101.600 HEAT: 0.2718023
 CYCLE:     3 TIME:   0.000 TIME LEFT:  2.00D  GRAD.:    86.177 HEAT: -1.958486
 CYCLE:     4 TIME:   0.008 TIME LEFT:  2.00D  GRAD.:    75.654 HEAT: -4.395508
 CYCLE:     5 TIME:   0.000 TIME LEFT:  2.00D  GRAD.:    82.863 HEAT: -5.079765
 CYCLE:     6 TIME:   0.008 TIME LEFT:  2.00D  GRAD.:    38.736 HEAT: -7.488657
 CYCLE:     7 TIME:   0.008 TIME LEFT:  2.00D  GRAD.:    26.617 HEAT: -8.203164
 CYCLE:     8 TIME:   0.000 TIME LEFT:  2.00D  GRAD.:    27.650 HEAT: -8.922729
 CYCLE:     9 TIME:   0.000 TIME LEFT:  2.00D  GRAD.:    27.900 HEAT: -10.08408
 CYCLE:    10 TIME:   0.008 TIME LEFT:  2.00D  GRAD.:    25.061 HEAT: -11.00763
 CYCLE:    11 TIME:   0.000 TIME LEFT:  2.00D  GRAD.:    27.516 HEAT: -11.35981
 CYCLE:    12 TIME:   0.000 TIME LEFT:  2.00D  GRAD.:    26.889 HEAT: -11.66207
 CYCLE:    13 TIME:   0.008 TIME LEFT:  2.00D  GRAD.:    28.927 HEAT: -11.74638
 CYCLE:    14 TIME:   0.008 TIME LEFT:  2.00D  GRAD.:    11.592 HEAT: -12.13453
 CYCLE:    15 TIME:   0.000 TIME LEFT:  2.00D  GRAD.:    11.917 HEAT: -12.19607
 CYCLE:    16 TIME:   0.000 TIME LEFT:  2.00D  GRAD.:     5.731 HEAT: -12.27380
 CYCLE:    17 TIME:   0.008 TIME LEFT:  2.00D  GRAD.:     6.155 HEAT: -12.30529
 CYCLE:    18 TIME:   0.000 TIME LEFT:  2.00D  GRAD.:     4.583 HEAT: -12.33769
 CYCLE:    19 TIME:   0.000 TIME LEFT:  2.00D  GRAD.:     5.517 HEAT: -12.37106
 CYCLE:    20 TIME:   0.008 TIME LEFT:  2.00D  GRAD.:     5.347 HEAT: -12.39870
 CYCLE:    21 TIME:   0.000 TIME LEFT:  2.00D  GRAD.:     5.459 HEAT: -12.43363
 CYCLE:    22 TIME:   0.000 TIME LEFT:  2.00D  GRAD.:     5.356 HEAT: -12.49004
 CYCLE:    23 TIME:   0.008 TIME LEFT:  2.00D  GRAD.:     6.143 HEAT: -12.57728
 CYCLE:    24 TIME:   0.000 TIME LEFT:  2.00D  GRAD.:     5.733 HEAT: -12.64593
 CYCLE:    25 TIME:   0.008 TIME LEFT:  2.00D  GRAD.:     5.477 HEAT: -12.69918
 CYCLE:    26 TIME:   0.000 TIME LEFT:  2.00D  GRAD.:     3.971 HEAT: -12.72894
 CYCLE:    27 TIME:   0.000 TIME LEFT:  2.00D  GRAD.:     3.384 HEAT: -12.75137
 CYCLE:    28 TIME:   0.000 TIME LEFT:  2.00D  GRAD.:     2.555 HEAT: -12.77339
 CYCLE:    29 TIME:   0.008 TIME LEFT:  2.00D  GRAD.:     2.244 HEAT: -12.78463
 CYCLE:    30 TIME:   0.000 TIME LEFT:  2.00D  GRAD.:     2.921 HEAT: -12.80067
 CYCLE:    31 TIME:   0.008 TIME LEFT:  2.00D  GRAD.:     2.648 HEAT: -12.81349
 CYCLE:    32 TIME:   0.000 TIME LEFT:  2.00D  GRAD.:     2.752 HEAT: -12.83769
 CYCLE:    33 TIME:   0.008 TIME LEFT:  2.00D  GRAD.:     2.606 HEAT: -12.85358
 CYCLE:    34 TIME:   0.000 TIME LEFT:  2.00D  GRAD.:     2.638 HEAT: -12.87015
 CYCLE:    35 TIME:   0.000 TIME LEFT:  2.00D  GRAD.:     2.669 HEAT: -12.88435
 CYCLE:    36 TIME:   0.008 TIME LEFT:  2.00D  GRAD.:     3.549 HEAT: -12.90684
 CYCLE:    37 TIME:   0.000 TIME LEFT:  2.00D  GRAD.:     2.732 HEAT: -12.92402
 CYCLE:    38 TIME:   0.008 TIME LEFT:  2.00D  GRAD.:     4.426 HEAT: -12.95184
 CYCLE:    39 TIME:   0.000 TIME LEFT:  2.00D  GRAD.:     2.545 HEAT: -12.97022
 CYCLE:    40 TIME:   0.008 TIME LEFT:  2.00D  GRAD.:     1.895 HEAT: -12.98437
 CYCLE:    41 TIME:   0.000 TIME LEFT:  2.00D  GRAD.:     2.600 HEAT: -13.00287
 CYCLE:    42 TIME:   0.000 TIME LEFT:  2.00D  GRAD.:     2.033 HEAT: -13.01591
 CYCLE:    43 TIME:   0.008 TIME LEFT:  2.00D  GRAD.:     3.815 HEAT: -13.03095
 CYCLE:    44 TIME:   0.000 TIME LEFT:  2.00D  GRAD.:     1.999 HEAT: -13.04351
 CYCLE:    45 TIME:   0.008 TIME LEFT:  2.00D  GRAD.:     1.597 HEAT: -13.05446
 CYCLE:    46 TIME:   0.000 TIME LEFT:  2.00D  GRAD.:     1.256 HEAT: -13.06448
 CYCLE:    47 TIME:   0.008 TIME LEFT:  2.00D  GRAD.:     1.109 HEAT: -13.06919
 CYCLE:    48 TIME:   0.000 TIME LEFT:  2.00D  GRAD.:     1.331 HEAT: -13.07244
 CYCLE:    49 TIME:   0.000 TIME LEFT:  2.00D  GRAD.:     1.074 HEAT: -13.07483
 CYCLE:    50 TIME:   0.008 TIME LEFT:  2.00D  GRAD.:     1.136 HEAT: -13.07813
 CYCLE:    51 TIME:   0.000 TIME LEFT:  2.00D  GRAD.:     1.449 HEAT: -13.08318
 CYCLE:    52 TIME:   0.000 TIME LEFT:  2.00D  GRAD.:     1.697 HEAT: -13.08818
 CYCLE:    53 TIME:   0.008 TIME LEFT:  2.00D  GRAD.:     2.079 HEAT: -13.10018
 CYCLE:    54 TIME:   0.000 TIME LEFT:  2.00D  GRAD.:     2.941 HEAT: -13.11621
 CYCLE:    55 TIME:   0.000 TIME LEFT:  2.00D  GRAD.:     3.770 HEAT: -13.14335
 CYCLE:    56 TIME:   0.008 TIME LEFT:  2.00D  GRAD.:     4.488 HEAT: -13.19731
 CYCLE:    57 TIME:   0.000 TIME LEFT:  2.00D  GRAD.:     3.570 HEAT: -13.22471
 CYCLE:    58 TIME:   0.008 TIME LEFT:  2.00D  GRAD.:     5.981 HEAT: -13.26160
 CYCLE:    59 TIME:   0.000 TIME LEFT:  2.00D  GRAD.:     2.138 HEAT: -13.28865
 CYCLE:    60 TIME:   0.000 TIME LEFT:  2.00D  GRAD.:     2.159 HEAT: -13.30620
 CYCLE:    61 TIME:   0.008 TIME LEFT:  2.00D  GRAD.:     3.418 HEAT: -13.32912
 CYCLE:    62 TIME:   0.000 TIME LEFT:  2.00D  GRAD.:     2.525 HEAT: -13.34028
 CYCLE:    63 TIME:   0.008 TIME LEFT:  2.00D  GRAD.:     2.388 HEAT: -13.36371
 CYCLE:    64 TIME:   0.000 TIME LEFT:  2.00D  GRAD.:     1.866 HEAT: -13.37140
 CYCLE:    65 TIME:   0.000 TIME LEFT:  2.00D  GRAD.:     2.175 HEAT: -13.38599
 CYCLE:    66 TIME:   0.008 TIME LEFT:  2.00D  GRAD.:     1.491 HEAT: -13.39126
 CYCLE:    67 TIME:   0.000 TIME LEFT:  2.00D  GRAD.:     1.399 HEAT: -13.39586
 CYCLE:    68 TIME:   0.000 TIME LEFT:  2.00D  GRAD.:     1.602 HEAT: -13.39917
 CYCLE:    69 TIME:   0.008 TIME LEFT:  2.00D  GRAD.:     1.632 HEAT: -13.40390
 CYCLE:    70 TIME:   0.000 TIME LEFT:  2.00D  GRAD.:     1.988 HEAT: -13.41132
 CYCLE:    71 TIME:   0.000 TIME LEFT:  2.00D  GRAD.:     2.743 HEAT: -13.41701
 CYCLE:    72 TIME:   0.008 TIME LEFT:  2.00D  GRAD.:     1.969 HEAT: -13.42398
 CYCLE:    73 TIME:   0.000 TIME LEFT:  2.00D  GRAD.:     1.298 HEAT: -13.43180
 CYCLE:    74 TIME:   0.008 TIME LEFT:  2.00D  GRAD.:     1.411 HEAT: -13.43676
 CYCLE:    75 TIME:   0.000 TIME LEFT:  2.00D  GRAD.:     1.816 HEAT: -13.44098
 CYCLE:    76 TIME:   0.008 TIME LEFT:  2.00D  GRAD.:     2.202 HEAT: -13.44573
 CYCLE:    77 TIME:   0.008 TIME LEFT:  2.00D  GRAD.:     1.953 HEAT: -13.45127
 CYCLE:    78 TIME:   0.000 TIME LEFT:  2.00D  GRAD.:     3.053 HEAT: -13.45792
 CYCLE:    79 TIME:   0.000 TIME LEFT:  2.00D  GRAD.:     1.910 HEAT: -13.46720
 CYCLE:    80 TIME:   0.008 TIME LEFT:  2.00D  GRAD.:     1.338 HEAT: -13.47273
 CYCLE:    81 TIME:   0.000 TIME LEFT:  2.00D  GRAD.:     2.447 HEAT: -13.48587
 CYCLE:    82 TIME:   0.008 TIME LEFT:  2.00D  GRAD.:     2.050 HEAT: -13.49338
 CYCLE:    83 TIME:   0.000 TIME LEFT:  2.00D  GRAD.:     1.388 HEAT: -13.50546
 CYCLE:    84 TIME:   0.000 TIME LEFT:  2.00D  GRAD.:     1.807 HEAT: -13.51405
 CYCLE:    85 TIME:   0.008 TIME LEFT:  2.00D  GRAD.:     1.445 HEAT: -13.51884
 CYCLE:    86 TIME:   0.008 TIME LEFT:  2.00D  GRAD.:     1.155 HEAT: -13.52248
 CYCLE:    87 TIME:   0.000 TIME LEFT:  2.00D  GRAD.:     1.214 HEAT: -13.52444
 CYCLE:    88 TIME:   0.008 TIME LEFT:  2.00D  GRAD.:     0.855 HEAT: -13.52652

     GRADIENT =  0.85536  IS LESS THAN CUTOFF =  1.00000



 -------------------------------------------------------------------------------
 START_RES=(1) PM6-D3H4 charge=0
 Generated by weighted sterimol script



     GEOMETRY OPTIMISED USING EIGENVECTOR FOLLOWING (EF).     
     SCF FIELD WAS ACHIEVED                                   


                              PM6-D3H4 CALCULATION
                                                       MOPAC2016 (Version: 18.184M)
                                                       Fri Sep 21 22:30:13 2018
                                                       No. of days remaining = 285




          FINAL HEAT OF FORMATION =        -13.52652 KCAL/MOL =     -56.59497 KJ/MOL


          TOTAL ENERGY            =       -776.34413 EV
          ELECTRONIC ENERGY       =      -3455.35618 EV  POINT GROUP:     C1  
          CORE-CORE REPULSION     =       2679.01205 EV
          COSMO AREA              =        132.14 SQUARE ANGSTROMS
          COSMO VOLUME            =        123.76 CUBIC ANGSTROMS

          GRADIENT NORM           =          0.85536 = 0.20745 PER ATOM
          IONIZATION POTENTIAL    =         11.018375 EV
          HOMO LUMO ENERGIES (EV) =        -11.018  4.305
          NO. OF FILLED LEVELS    =         16
          MOLECULAR WEIGHT        =         72.1498

          MOLECULAR DIMENSIONS (Angstroms)

            Atom       Atom       Distance
            H     9    H     6     5.50210
            H    13    H     7     3.73117
            H    11    H     8     2.77849


          SCF CALCULATIONS        =         93
 
          WALL-CLOCK TIME         =          0.305 SECONDS
          COMPUTATION TIME        =          0.550 SECONDS




   ATOM                 CHEMICAL                   X               Y               Z
  NUMBER                 SYMBOL               (ANGSTROMS)     (ANGSTROMS)     (ANGSTROMS)
 
     1       C(HETATM    1  C01 UNK     1)   -0.01697759  *   0.10419830  *  -0.40129196  *
     2       C(HETATM    2  C02 UNK     1)    1.08347874  *   1.15500886  *  -0.22938968  *
     3       C(HETATM    3  C03 UNK     1)    1.62226015  *   1.24408286  *   1.20978601  *
     4       C(HETATM    4  C04 UNK     1)    2.46242596  *   0.02475830  *   1.63825989  *
     5       C(HETATM    5  C05 UNK     1)    1.76501504  *  -0.84299859  *   2.69049474  *
     6       H(HETATM    6  H01 UNK     1)   -0.39653888  *   0.12142767  *  -1.44652658  *
     7       H(HETATM    7  H02 UNK     1)    0.38157039  *  -0.91007210  *  -0.17913798  *
     8       H(HETATM    8  H03 UNK     1)   -0.86107557  *   0.31312550  *   0.29224557  *
     9       H(HETATM    9  H04 UNK     1)    2.39147796  *  -1.73299409  *   2.91938625  *
    10       H(HETATM   10  H07 UNK     1)    0.66818723  *   2.15418434  *  -0.50925193  *
    11       H(HETATM   11  H08 UNK     1)    1.92523254  *   0.92137104  *  -0.92420067  *
    12       H(HETATM   12  H09 UNK     1)    0.76150967  *   1.36954250  *   1.90799983  *
    13       H(HETATM   13  H10 UNK     1)    2.25741473  *   2.15950002  *   1.28372494  *
    14       H(HETATM   14  H11 UNK     1)    3.43169971  *   0.38293836  *   2.06069571  *
    15       H(HETATM   15  H12 UNK     1)    2.68960376  *  -0.60577752  *   0.74637470  *
    16       H(HETATM   16  H14 UNK     1)    0.77717221  *  -1.18598675  *   2.31093867  *
    17       H(HETATM   17  H15 UNK     1)    1.60710399  *  -0.26334746  *   3.62640281  *

                             CARTESIAN COORDINATES

   1    C       -0.016977587     0.104198303    -0.401291963
   2    C        1.083478739     1.155008858    -0.229389680
   3    C        1.622260147     1.244082864     1.209786009
   4    C        2.462425963     0.024758296     1.638259891
   5    C        1.765015038    -0.842998587     2.690494743
   6    H       -0.396538885     0.121427671    -1.446526581
   7    H        0.381570385    -0.910072102    -0.179137984
   8    H       -0.861075574     0.313125499     0.292245571
   9    H        2.391477958    -1.732994091     2.919386246
  10    H        0.668187226     2.154184345    -0.509251928
  11    H        1.925232537     0.921371038    -0.924200670
  12    H        0.761509671     1.369542505     1.907999834
  13    H        2.257414733     2.159500022     1.283724937
  14    H        3.431699709     0.382938360     2.060695708
  15    H        2.689603763    -0.605777518     0.746374701
  16    H        0.777172213    -1.185986753     2.310938667
  17    H        1.607103989    -0.263347460     3.626402805


           Empirical Formula: C5 H12  =    17 atoms



      MOLECULAR POINT GROUP   :   C1  


                  EIGENVALUES  
 -28.40444 -26.10366 -23.54909 -20.80175 -19.41689 -15.85907 -15.14239 -14.66812
 -13.92195 -13.32353 -12.67565 -12.31090 -11.97066 -11.30943 -11.14033 -11.01838
   4.30478   4.46375   4.63363   4.75362   5.71556   5.76751   5.94978   6.01656
   6.07321   6.23790   6.32927   6.51263   6.61108   6.64314   6.83631   6.93340


              NET ATOMIC CHARGES AND DIPOLE CONTRIBUTIONS

  ATOM NO.                 TYPE                        CHARGE      No. of ELECS.   s-Pop       p-Pop       
    1          C(HETATM    1  C01 UNK     1)          -0.457725        4.4577     1.09071     3.36701
    2          C(HETATM    2  C02 UNK     1)          -0.223713        4.2237     1.08702     3.13669
    3          C(HETATM    3  C03 UNK     1)          -0.271203        4.2712     1.09397     3.17723
    4          C(HETATM    4  C04 UNK     1)          -0.220245        4.2202     1.08620     3.13404
    5          C(HETATM    5  C05 UNK     1)          -0.462238        4.4622     1.09196     3.37028
    6          H(HETATM    6  H01 UNK     1)           0.141162        0.8588     0.85884
    7          H(HETATM    7  H02 UNK     1)           0.149559        0.8504     0.85044
    8          H(HETATM    8  H03 UNK     1)           0.145829        0.8542     0.85417
    9          H(HETATM    9  H04 UNK     1)           0.142552        0.8574     0.85745
   10          H(HETATM   10  H07 UNK     1)           0.122128        0.8779     0.87787
   11          H(HETATM   11  H08 UNK     1)           0.125821        0.8742     0.87418
   12          H(HETATM   12  H09 UNK     1)           0.137716        0.8623     0.86228
   13          H(HETATM   13  H10 UNK     1)           0.124786        0.8752     0.87521
   14          H(HETATM   14  H11 UNK     1)           0.120801        0.8792     0.87920
   15          H(HETATM   15  H12 UNK     1)           0.130154        0.8698     0.86985
   16          H(HETATM   16  H14 UNK     1)           0.149426        0.8506     0.85057
   17          H(HETATM   17  H15 UNK     1)           0.145189        0.8548     0.85481

          NET CHARGE ON RESIDUES

      Residue         Charge  Anion or
                              Cation?
      UNK     1       +0.000
 


 DIPOLE           X         Y         Z       TOTAL
 POINT-CHG.     0.039     0.045    -0.035     0.070
 HYBRID        -0.078    -0.064     0.047     0.111
 SUM           -0.039    -0.019     0.012     0.045


          ATOMIC ORBITAL ELECTRON POPULATIONS

                   Atom                  s        px        py        pz   
   C(HETATM    1  C01 UNK     1)   1.09071   1.10012   1.11320   1.15369
   C(HETATM    2  C02 UNK     1)   1.08702   1.05029   1.06397   1.02243
   C(HETATM    3  C03 UNK     1)   1.09397   1.09488   1.05248   1.02988
   C(HETATM    4  C04 UNK     1)   1.08620   1.05305   1.02033   1.06066
   C(HETATM    5  C05 UNK     1)   1.09196   1.14249   1.12090   1.10688
   H(HETATM    6  H01 UNK     1)   0.85884
   H(HETATM    7  H02 UNK     1)   0.85044
   H(HETATM    8  H03 UNK     1)   0.85417
   H(HETATM    9  H04 UNK     1)   0.85745
   H(HETATM   10  H07 UNK     1)   0.87787
   H(HETATM   11  H08 UNK     1)   0.87418
   H(HETATM   12  H09 UNK     1)   0.86228
   H(HETATM   13  H10 UNK     1)   0.87521
   H(HETATM   14  H11 UNK     1)   0.87920
   H(HETATM   15  H12 UNK     1)   0.86985
   H(HETATM   16  H14 UNK     1)   0.85057
   H(HETATM   17  H15 UNK     1)   0.85481

 **********************
 *                    *
 * JOB ENDED NORMALLY *
 *                    *
 **********************



 TOTAL JOB TIME:             0.30 SECONDS

 == MOPAC DONE ==
