 *******************************************************************************
 ** Site#: 9752         For non-commercial use only    Version 18.184M 64BITS **
 *******************************************************************************
 ** Cite this program as: MOPAC2016, Version: 18.184M, James J. P. Stewart,   **
 ** Stewart Computational Chemistry, web: HTTP://OpenMOPAC.net. Days left: 285**
 *******************************************************************************
 **                                                                           **
 **                                MOPAC2016                                  **
 **                                                                           **
 *******************************************************************************

                              PM6-D3H4 CALCULATION RESULTS

 *******************************************************************************
 *  CALCULATION DONE:                                Fri Sep 21 22:30:11 2018  *
 *  PM6-D3H4   - CORRECT DISPERSION AND HYDROGEN BOND TERMS USING THE D3H4 METHOD
 *  START_RES  - STARTING RESIDUE NUMBERS DEFINED
 *  Keyword:   START_RES=(1) 
 *
 *
 *
 *                 CHARGE ON SYSTEM = 0
 *
 *
 *
 *  T=         - A TIME OF 172800.0 SECONDS REQUESTED
 *  DUMP=N     - RESTART FILE WRITTEN EVERY  7200.000 SECONDS
 *******************************************************************************
 START_RES=(1) PM6-D3H4 charge=0
 Generated by weighted sterimol script

   ATOM                 CHEMICAL                   X               Y               Z
  NUMBER                 SYMBOL               (ANGSTROMS)     (ANGSTROMS)     (ANGSTROMS)
 
     1       C(HETATM    1  C01 UNK     1)    0.00000000  *   0.00000000  *   0.00000000  *
     2       C(HETATM    2  C02 UNK     1)    1.17100000  *   0.97500000  *  -0.22000000  *
     3       C(HETATM    3  C03 UNK     1)    1.75200000  *   1.39600000  *   1.14300000  *
     4       C(HETATM    4  C04 UNK     1)    2.52100000  *   0.21300000  *   1.76000000  *
     5       C(HETATM    5  C05 UNK     1)    3.83300000  *  -0.00700000  *   0.98400000  *
     6       H(HETATM    6  H01 UNK     1)   -0.78500000  *   0.24400000  *  -0.65300000  *
     7       H(HETATM    7  H02 UNK     1)    0.32200000  *  -0.98100000  *  -0.19000000  *
     8       H(HETATM    8  H03 UNK     1)   -0.33500000  *   0.07300000  *   0.99300000  *
     9       H(HETATM    9  H04 UNK     1)    4.35700000  *  -0.81500000  *   1.40400000  *
    10       H(HETATM   10  H07 UNK     1)    0.82800000  *   1.82500000  *  -0.73100000  *
    11       H(HETATM   11  H08 UNK     1)    1.91700000  *   0.50300000  *  -0.78700000  *
    12       H(HETATM   12  H09 UNK     1)    0.97000000  *   1.67700000  *   1.78600000  *
    13       H(HETATM   13  H10 UNK     1)    2.40500000  *   2.20700000  *   1.01100000  *
    14       H(HETATM   14  H11 UNK     1)    1.93300000  *  -0.65400000  *   1.70600000  *
    15       H(HETATM   15  H12 UNK     1)    2.74100000  *   0.42500000  *   2.76400000  *
    16       H(HETATM   16  H14 UNK     1)    4.42400000  *   0.85900000  *   1.04100000  *
    17       H(HETATM   17  H15 UNK     1)    3.61400000  *  -0.21800000  *  -0.02200000  *
 

 General Reference for PM6:
 "Optimization of Parameters for Semiempirical Methods V: Modification of NDDO Approximations
 and Application to 70 Elements", J. J. P. Stewart, J. Mol. Mod., 13, 1173-1213 (2007)
 URL: http://www.springerlink.com/content/ar33482301010477/fulltext.pdf

           Empirical Formula: C5 H12  =    17 atoms



      MOLECULAR POINT GROUP   :   C1  


      RHF CALCULATION, NO. OF DOUBLY OCCUPIED LEVELS = 16


          Geometry optimization using EF

          DIAGONAL MATRIX USED AS START HESSIAN

 CYCLE:     1 TIME:   0.008 TIME LEFT:  2.00D  GRAD.:   173.788 HEAT:  5.330741
 CYCLE:     2 TIME:   0.000 TIME LEFT:  2.00D  GRAD.:   109.591 HEAT: -6.733112
 CYCLE:     3 TIME:   0.008 TIME LEFT:  2.00D  GRAD.:    36.592 HEAT: -10.75758
 CYCLE:     4 TIME:   0.000 TIME LEFT:  2.00D  GRAD.:    25.676 HEAT: -11.26528
 CYCLE:     5 TIME:   0.008 TIME LEFT:  2.00D  GRAD.:    18.849 HEAT: -11.51580
 CYCLE:     6 TIME:   0.000 TIME LEFT:  2.00D  GRAD.:    28.387 HEAT: -11.55919
 CYCLE:     7 TIME:   0.000 TIME LEFT:  2.00D  GRAD.:    19.440 HEAT: -11.88295
 CYCLE:     8 TIME:   0.008 TIME LEFT:  2.00D  GRAD.:    29.050 HEAT: -11.92030
 CYCLE:     9 TIME:   0.000 TIME LEFT:  2.00D  GRAD.:    20.614 HEAT: -12.27376
 CYCLE:    10 TIME:   0.008 TIME LEFT:  2.00D  GRAD.:    19.876 HEAT: -12.47250
 CYCLE:    11 TIME:   0.000 TIME LEFT:  2.00D  GRAD.:    17.343 HEAT: -12.68466
 CYCLE:    12 TIME:   0.000 TIME LEFT:  2.00D  GRAD.:    15.103 HEAT: -12.86154
 CYCLE:    13 TIME:   0.000 TIME LEFT:  2.00D  GRAD.:    20.022 HEAT: -12.94224
 CYCLE:    14 TIME:   0.008 TIME LEFT:  2.00D  GRAD.:     9.860 HEAT: -13.17529
 CYCLE:    15 TIME:   0.000 TIME LEFT:  2.00D  GRAD.:     9.524 HEAT: -13.27445
 CYCLE:    16 TIME:   0.000 TIME LEFT:  2.00D  GRAD.:     7.240 HEAT: -13.33907
 CYCLE:    17 TIME:   0.008 TIME LEFT:  2.00D  GRAD.:     5.978 HEAT: -13.37202
 CYCLE:    18 TIME:   0.000 TIME LEFT:  2.00D  GRAD.:     3.056 HEAT: -13.39557
 CYCLE:    19 TIME:   0.000 TIME LEFT:  2.00D  GRAD.:     2.551 HEAT: -13.41645
 CYCLE:    20 TIME:   0.008 TIME LEFT:  2.00D  GRAD.:     2.869 HEAT: -13.43432
 CYCLE:    21 TIME:   0.000 TIME LEFT:  2.00D  GRAD.:     2.869 HEAT: -13.44984
 CYCLE:    22 TIME:   0.008 TIME LEFT:  2.00D  GRAD.:     3.182 HEAT: -13.46833
 CYCLE:    23 TIME:   0.000 TIME LEFT:  2.00D  GRAD.:     4.520 HEAT: -13.49447
 CYCLE:    24 TIME:   0.000 TIME LEFT:  2.00D  GRAD.:     5.080 HEAT: -13.53044
 CYCLE:    25 TIME:   0.008 TIME LEFT:  2.00D  GRAD.:     5.220 HEAT: -13.58369
 CYCLE:    26 TIME:   0.000 TIME LEFT:  2.00D  GRAD.:     4.704 HEAT: -13.63051
 CYCLE:    27 TIME:   0.000 TIME LEFT:  2.00D  GRAD.:     4.456 HEAT: -13.66997
 CYCLE:    28 TIME:   0.008 TIME LEFT:  2.00D  GRAD.:     5.527 HEAT: -13.70788
 CYCLE:    29 TIME:   0.000 TIME LEFT:  2.00D  GRAD.:     3.789 HEAT: -13.73541
 CYCLE:    30 TIME:   0.008 TIME LEFT:  2.00D  GRAD.:     3.507 HEAT: -13.76597
 CYCLE:    31 TIME:   0.000 TIME LEFT:  2.00D  GRAD.:     3.260 HEAT: -13.78683
 CYCLE:    32 TIME:   0.008 TIME LEFT:  2.00D  GRAD.:     2.861 HEAT: -13.80312
 CYCLE:    33 TIME:   0.000 TIME LEFT:  2.00D  GRAD.:     1.961 HEAT: -13.81357
 CYCLE:    34 TIME:   0.000 TIME LEFT:  2.00D  GRAD.:     2.122 HEAT: -13.82668
 CYCLE:    35 TIME:   0.008 TIME LEFT:  2.00D  GRAD.:     2.187 HEAT: -13.83576
 CYCLE:    36 TIME:   0.000 TIME LEFT:  2.00D  GRAD.:     2.497 HEAT: -13.84601
 CYCLE:    37 TIME:   0.000 TIME LEFT:  2.00D  GRAD.:     1.917 HEAT: -13.85245
 CYCLE:    38 TIME:   0.008 TIME LEFT:  2.00D  GRAD.:     1.904 HEAT: -13.85964
 CYCLE:    39 TIME:   0.000 TIME LEFT:  2.00D  GRAD.:     2.006 HEAT: -13.86723
 CYCLE:    40 TIME:   0.000 TIME LEFT:  2.00D  GRAD.:     1.715 HEAT: -13.87487
 CYCLE:    41 TIME:   0.008 TIME LEFT:  2.00D  GRAD.:     1.632 HEAT: -13.88437
 CYCLE:    42 TIME:   0.000 TIME LEFT:  2.00D  GRAD.:     1.754 HEAT: -13.88987
 CYCLE:    43 TIME:   0.008 TIME LEFT:  2.00D  GRAD.:     1.873 HEAT: -13.89670
 CYCLE:    44 TIME:   0.000 TIME LEFT:  2.00D  GRAD.:     2.146 HEAT: -13.90664
 CYCLE:    45 TIME:   0.000 TIME LEFT:  2.00D  GRAD.:     2.398 HEAT: -13.92080
 CYCLE:    46 TIME:   0.008 TIME LEFT:  2.00D  GRAD.:     3.490 HEAT: -13.94055
 CYCLE:    47 TIME:   0.000 TIME LEFT:  2.00D  GRAD.:     2.136 HEAT: -13.94922
 CYCLE:    48 TIME:   0.000 TIME LEFT:  2.00D  GRAD.:     1.228 HEAT: -13.95860
 CYCLE:    49 TIME:   0.008 TIME LEFT:  2.00D  GRAD.:     1.190 HEAT: -13.96263
 CYCLE:    50 TIME:   0.000 TIME LEFT:  2.00D  GRAD.:     1.606 HEAT: -13.96548
 CYCLE:    51 TIME:   0.000 TIME LEFT:  2.00D  GRAD.:     1.210 HEAT: -13.96846
 CYCLE:    52 TIME:   0.008 TIME LEFT:  2.00D  GRAD.:     1.121 HEAT: -13.97101
 CYCLE:    53 TIME:   0.000 TIME LEFT:  2.00D  GRAD.:     0.625 HEAT: -13.97273

     GRADIENT =  0.62528  IS LESS THAN CUTOFF =  1.00000



 -------------------------------------------------------------------------------
 START_RES=(1) PM6-D3H4 charge=0
 Generated by weighted sterimol script



     GEOMETRY OPTIMISED USING EIGENVECTOR FOLLOWING (EF).     
     SCF FIELD WAS ACHIEVED                                   


                              PM6-D3H4 CALCULATION
                                                       MOPAC2016 (Version: 18.184M)
                                                       Fri Sep 21 22:30:11 2018
                                                       No. of days remaining = 285




          FINAL HEAT OF FORMATION =        -13.97273 KCAL/MOL =     -58.46188 KJ/MOL


          TOTAL ENERGY            =       -776.37173 EV
          ELECTRONIC ENERGY       =      -3453.99984 EV  POINT GROUP:     C1  
          CORE-CORE REPULSION     =       2677.62812 EV
          COSMO AREA              =        132.20 SQUARE ANGSTROMS
          COSMO VOLUME            =        123.12 CUBIC ANGSTROMS

          GRADIENT NORM           =          0.62528 = 0.15165 PER ATOM
          IONIZATION POTENTIAL    =         11.030636 EV
          HOMO LUMO ENERGIES (EV) =        -11.031  4.393
          NO. OF FILLED LEVELS    =         16
          MOLECULAR WEIGHT        =         72.1498

          MOLECULAR DIMENSIONS (Angstroms)

            Atom       Atom       Distance
            H     9    H     6     5.69227
            H    13    H     7     3.52905
            H    17    H    12     3.04126


          SCF CALCULATIONS        =         57
 
          WALL-CLOCK TIME         =          0.164 SECONDS
          COMPUTATION TIME        =          0.320 SECONDS




   ATOM                 CHEMICAL                   X               Y               Z
  NUMBER                 SYMBOL               (ANGSTROMS)     (ANGSTROMS)     (ANGSTROMS)
 
     1       C(HETATM    1  C01 UNK     1)   -0.04715207  *   0.00073867  *  -0.05118910  *
     2       C(HETATM    2  C02 UNK     1)    1.07451940  *   1.03560795  *  -0.18101804  *
     3       C(HETATM    3  C03 UNK     1)    1.76305420  *   1.36813550  *   1.15407984  *
     4       C(HETATM    4  C04 UNK     1)    2.59164489  *   0.21830699  *   1.75176314  *
     5       C(HETATM    5  C05 UNK     1)    3.89498519  *  -0.05184737  *   0.99466567  *
     6       H(HETATM    6  H01 UNK     1)   -0.60280961  *  -0.07345440  *  -1.01218094  *
     7       H(HETATM    7  H02 UNK     1)    0.37533131  *  -0.99880224  *   0.19309339  *
     8       H(HETATM    8  H03 UNK     1)   -0.75638963  *   0.29631782  *   0.75278457  *
     9       H(HETATM    9  H04 UNK     1)    4.44684630  *  -0.88247387  *   1.48749710  *
    10       H(HETATM   10  H07 UNK     1)    0.64160948  *   1.98113640  *  -0.59132021  *
    11       H(HETATM   11  H08 UNK     1)    1.83502605  *   0.65778207  *  -0.90454592  *
    12       H(HETATM   12  H09 UNK     1)    0.97930615  *   1.65787699  *   1.89510046  *
    13       H(HETATM   13  H10 UNK     1)    2.43601424  *   2.24474614  *   0.99249054  *
    14       H(HETATM   14  H11 UNK     1)    1.97717895  *  -0.71268644  *   1.76194407  *
    15       H(HETATM   15  H12 UNK     1)    2.84231894  *   0.48131999  *   2.80891245  *
    16       H(HETATM   16  H14 UNK     1)    4.53678074  *   0.85636086  *   0.99059380  *
    17       H(HETATM   17  H15 UNK     1)    3.67960891  *  -0.34220971  *  -0.05686222  *

                             CARTESIAN COORDINATES

   1    C       -0.047152074     0.000738668    -0.051189102
   2    C        1.074519400     1.035607949    -0.181018043
   3    C        1.763054203     1.368135502     1.154079842
   4    C        2.591644887     0.218306988     1.751763138
   5    C        3.894985189    -0.051847371     0.994665671
   6    H       -0.602809612    -0.073454403    -1.012180936
   7    H        0.375331311    -0.998802242     0.193093392
   8    H       -0.756389626     0.296317821     0.752784567
   9    H        4.446846304    -0.882473867     1.487497104
  10    H        0.641609484     1.981136404    -0.591320215
  11    H        1.835026053     0.657782073    -0.904545919
  12    H        0.979306152     1.657876994     1.895100457
  13    H        2.436014243     2.244746137     0.992490537
  14    H        1.977178949    -0.712686441     1.761944071
  15    H        2.842318941     0.481319993     2.808912451
  16    H        4.536780742     0.856360859     0.990593803
  17    H        3.679608910    -0.342209715    -0.056862217


           Empirical Formula: C5 H12  =    17 atoms



      MOLECULAR POINT GROUP   :   C1  


                  EIGENVALUES  
 -28.42178 -26.07160 -23.44122 -21.32925 -18.86254 -15.85129 -15.57440 -14.13008
 -13.93096 -13.74280 -12.51504 -12.18641 -12.14156 -11.27973 -11.11094 -11.03064
   4.39349   4.44198   4.55895   4.82096   5.68671   5.80829   5.97570   5.98408
   6.08738   6.25035   6.26772   6.54267   6.56171   6.61548   6.90978   6.91125


              NET ATOMIC CHARGES AND DIPOLE CONTRIBUTIONS

  ATOM NO.                 TYPE                        CHARGE      No. of ELECS.   s-Pop       p-Pop       
    1          C(HETATM    1  C01 UNK     1)          -0.459569        4.4596     1.09093     3.36864
    2          C(HETATM    2  C02 UNK     1)          -0.221016        4.2210     1.08588     3.13514
    3          C(HETATM    3  C03 UNK     1)          -0.269187        4.2692     1.09348     3.17571
    4          C(HETATM    4  C04 UNK     1)          -0.221043        4.2210     1.08572     3.13533
    5          C(HETATM    5  C05 UNK     1)          -0.459952        4.4600     1.09090     3.36906
    6          H(HETATM    6  H01 UNK     1)           0.142057        0.8579     0.85794
    7          H(HETATM    7  H02 UNK     1)           0.147501        0.8525     0.85250
    8          H(HETATM    8  H03 UNK     1)           0.146277        0.8537     0.85372
    9          H(HETATM    9  H04 UNK     1)           0.142189        0.8578     0.85781
   10          H(HETATM   10  H07 UNK     1)           0.121370        0.8786     0.87863
   11          H(HETATM   11  H08 UNK     1)           0.128415        0.8716     0.87158
   12          H(HETATM   12  H09 UNK     1)           0.129093        0.8709     0.87091
   13          H(HETATM   13  H10 UNK     1)           0.129777        0.8702     0.87022
   14          H(HETATM   14  H11 UNK     1)           0.129354        0.8706     0.87065
   15          H(HETATM   15  H12 UNK     1)           0.121271        0.8787     0.87873
   16          H(HETATM   16  H14 UNK     1)           0.145317        0.8547     0.85468
   17          H(HETATM   17  H15 UNK     1)           0.148148        0.8519     0.85185

          NET CHARGE ON RESIDUES

      Residue         Charge  Anion or
                              Cation?
      UNK     1       +0.000
 


 DIPOLE           X         Y         Z       TOTAL
 POINT-CHG.    -0.012     0.040     0.020     0.046
 HYBRID         0.008    -0.046    -0.022     0.051
 SUM           -0.004    -0.005    -0.003     0.007


          ATOMIC ORBITAL ELECTRON POPULATIONS

                   Atom                  s        px        py        pz   
   C(HETATM    1  C01 UNK     1)   1.09093   1.09711   1.11325   1.15828
   C(HETATM    2  C02 UNK     1)   1.08588   1.03663   1.06277   1.03574
   C(HETATM    3  C03 UNK     1)   1.09348   1.07715   1.05927   1.03929
   C(HETATM    4  C04 UNK     1)   1.08572   1.00177   1.06735   1.06620
   C(HETATM    5  C05 UNK     1)   1.09090   1.07472   1.15535   1.13898
   H(HETATM    6  H01 UNK     1)   0.85794
   H(HETATM    7  H02 UNK     1)   0.85250
   H(HETATM    8  H03 UNK     1)   0.85372
   H(HETATM    9  H04 UNK     1)   0.85781
   H(HETATM   10  H07 UNK     1)   0.87863
   H(HETATM   11  H08 UNK     1)   0.87158
   H(HETATM   12  H09 UNK     1)   0.87091
   H(HETATM   13  H10 UNK     1)   0.87022
   H(HETATM   14  H11 UNK     1)   0.87065
   H(HETATM   15  H12 UNK     1)   0.87873
   H(HETATM   16  H14 UNK     1)   0.85468
   H(HETATM   17  H15 UNK     1)   0.85185

 **********************
 *                    *
 * JOB ENDED NORMALLY *
 *                    *
 **********************



 TOTAL JOB TIME:             0.17 SECONDS

 == MOPAC DONE ==
