 *******************************************************************************
 ** Site#: 9752         For non-commercial use only    Version 18.184M 64BITS **
 *******************************************************************************
 ** Cite this program as: MOPAC2016, Version: 18.184M, James J. P. Stewart,   **
 ** Stewart Computational Chemistry, web: HTTP://OpenMOPAC.net. Days left: 285**
 *******************************************************************************
 **                                                                           **
 **                                MOPAC2016                                  **
 **                                                                           **
 *******************************************************************************

                              PM6-D3H4 CALCULATION RESULTS

 *******************************************************************************
 *  CALCULATION DONE:                                Fri Sep 21 22:30:07 2018  *
 *  PM6-D3H4   - CORRECT DISPERSION AND HYDROGEN BOND TERMS USING THE D3H4 METHOD
 *  START_RES  - STARTING RESIDUE NUMBERS DEFINED
 *  Keyword:   START_RES=(1) 
 *
 *
 *
 *                 CHARGE ON SYSTEM = 0
 *
 *
 *
 *  T=         - A TIME OF 172800.0 SECONDS REQUESTED
 *  DUMP=N     - RESTART FILE WRITTEN EVERY  7200.000 SECONDS
 *******************************************************************************
 START_RES=(1) PM6-D3H4 charge=0
 Generated by weighted sterimol script

   ATOM                 CHEMICAL                   X               Y               Z
  NUMBER                 SYMBOL               (ANGSTROMS)     (ANGSTROMS)     (ANGSTROMS)
 
     1       C(HETATM    1  C01 UNK     1)    0.00000000  *   0.00000000  *   0.00000000  *
     2       C(HETATM    2  C02 UNK     1)    1.17100000  *   0.97500000  *  -0.22000000  *
     3       C(HETATM    3  C03 UNK     1)    1.75200000  *   1.39600000  *   1.14300000  *
     4       C(HETATM    4  C04 UNK     1)    2.19400000  *   2.87000000  *   1.07900000  *
     5       C(HETATM    5  C05 UNK     1)    1.91500000  *   3.54900000  *   2.43200000  *
     6       H(HETATM    6  H01 UNK     1)   -0.78500000  *   0.24400000  *  -0.65300000  *
     7       H(HETATM    7  H02 UNK     1)    0.32200000  *  -0.98100000  *  -0.19000000  *
     8       H(HETATM    8  H03 UNK     1)   -0.33500000  *   0.07300000  *   0.99300000  *
     9       H(HETATM    9  H04 UNK     1)    2.21600000  *   4.55500000  *   2.38700000  *
    10       H(HETATM   10  H07 UNK     1)    0.82800000  *   1.82500000  *  -0.73100000  *
    11       H(HETATM   11  H08 UNK     1)    1.91700000  *   0.50300000  *  -0.78700000  *
    12       H(HETATM   12  H09 UNK     1)    2.58100000  *   0.79300000  *   1.37200000  *
    13       H(HETATM   13  H10 UNK     1)    1.02000000  *   1.28300000  *   1.88700000  *
    14       H(HETATM   14  H11 UNK     1)    1.65900000  *   3.36300000  *   0.32200000  *
    15       H(HETATM   15  H12 UNK     1)    3.22100000  *   2.91800000  *   0.86900000  *
    16       H(HETATM   16  H14 UNK     1)    2.45300000  *   3.05800000  *   3.18900000  *
    17       H(HETATM   17  H15 UNK     1)    0.88800000  *   3.50100000  *   2.64400000  *
 

 General Reference for PM6:
 "Optimization of Parameters for Semiempirical Methods V: Modification of NDDO Approximations
 and Application to 70 Elements", J. J. P. Stewart, J. Mol. Mod., 13, 1173-1213 (2007)
 URL: http://www.springerlink.com/content/ar33482301010477/fulltext.pdf

           Empirical Formula: C5 H12  =    17 atoms



      MOLECULAR POINT GROUP   :   C1  


      RHF CALCULATION, NO. OF DOUBLY OCCUPIED LEVELS = 16


          Geometry optimization using EF

          DIAGONAL MATRIX USED AS START HESSIAN

 CYCLE:     1 TIME:   0.008 TIME LEFT:  2.00D  GRAD.:   175.471 HEAT:  6.352517
 CYCLE:     2 TIME:   0.000 TIME LEFT:  2.00D  GRAD.:   136.510 HEAT: -3.915719
 CYCLE:     3 TIME:   0.008 TIME LEFT:  2.00D  GRAD.:   109.719 HEAT: -4.549932
 CYCLE:     4 TIME:   0.000 TIME LEFT:  2.00D  GRAD.:    66.508 HEAT: -8.853679
 CYCLE:     5 TIME:   0.008 TIME LEFT:  2.00D  GRAD.:    23.847 HEAT: -10.54442
 CYCLE:     6 TIME:   0.008 TIME LEFT:  2.00D  GRAD.:    29.328 HEAT: -10.59047
 CYCLE:     7 TIME:   0.000 TIME LEFT:  2.00D  GRAD.:    27.579 HEAT: -10.69913
 CYCLE:     8 TIME:   0.000 TIME LEFT:  2.00D  GRAD.:    27.398 HEAT: -10.78495
 CYCLE:     9 TIME:   0.008 TIME LEFT:  2.00D  GRAD.:    24.494 HEAT: -10.88932
 CYCLE:    10 TIME:   0.000 TIME LEFT:  2.00D  GRAD.:    13.889 HEAT: -11.12891
 CYCLE:    11 TIME:   0.000 TIME LEFT:  2.00D  GRAD.:    13.957 HEAT: -11.16921
 CYCLE:    12 TIME:   0.008 TIME LEFT:  2.00D  GRAD.:     9.046 HEAT: -11.28685
 CYCLE:    13 TIME:   0.000 TIME LEFT:  2.00D  GRAD.:     6.781 HEAT: -11.35057
 CYCLE:    14 TIME:   0.008 TIME LEFT:  2.00D  GRAD.:     8.889 HEAT: -11.40778
 CYCLE:    15 TIME:   0.000 TIME LEFT:  2.00D  GRAD.:     5.632 HEAT: -11.46414
 CYCLE:    16 TIME:   0.000 TIME LEFT:  2.00D  GRAD.:     5.782 HEAT: -11.48804
 CYCLE:    17 TIME:   0.008 TIME LEFT:  2.00D  GRAD.:     4.305 HEAT: -11.51757
 CYCLE:    18 TIME:   0.000 TIME LEFT:  2.00D  GRAD.:     4.996 HEAT: -11.56559
 CYCLE:    19 TIME:   0.000 TIME LEFT:  2.00D  GRAD.:     6.002 HEAT: -11.59356
 CYCLE:    20 TIME:   0.008 TIME LEFT:  2.00D  GRAD.:     5.686 HEAT: -11.64236
 CYCLE:    21 TIME:   0.008 TIME LEFT:  2.00D  GRAD.:     6.830 HEAT: -11.74968
 CYCLE:    22 TIME:   0.000 TIME LEFT:  2.00D  GRAD.:     9.525 HEAT: -11.88944
 CYCLE:    23 TIME:   0.000 TIME LEFT:  2.00D  GRAD.:    11.886 HEAT: -12.09022
 CYCLE:    24 TIME:   0.008 TIME LEFT:  2.00D  GRAD.:    14.938 HEAT: -12.41295
 CYCLE:    25 TIME:   0.000 TIME LEFT:  2.00D  GRAD.:    11.661 HEAT: -12.78048
 CYCLE:    26 TIME:   0.008 TIME LEFT:  2.00D  GRAD.:    14.298 HEAT: -13.03086
 CYCLE:    27 TIME:   0.008 TIME LEFT:  2.00D  GRAD.:     9.730 HEAT: -13.18278
 CYCLE:    28 TIME:   0.000 TIME LEFT:  2.00D  GRAD.:     7.336 HEAT: -13.33571
 CYCLE:    29 TIME:   0.000 TIME LEFT:  2.00D  GRAD.:     6.674 HEAT: -13.56196
 CYCLE:    30 TIME:   0.008 TIME LEFT:  2.00D  GRAD.:     8.470 HEAT: -13.75750
 CYCLE:    31 TIME:   0.000 TIME LEFT:  2.00D  GRAD.:     9.657 HEAT: -13.98882
 CYCLE:    32 TIME:   0.008 TIME LEFT:  2.00D  GRAD.:    13.398 HEAT: -14.22744
 CYCLE:    33 TIME:   0.000 TIME LEFT:  2.00D  GRAD.:    14.384 HEAT: -14.25284
 CYCLE:    34 TIME:   0.000 TIME LEFT:  2.00D  GRAD.:     7.511 HEAT: -14.54196
 CYCLE:    35 TIME:   0.008 TIME LEFT:  2.00D  GRAD.:     8.179 HEAT: -14.66509
 CYCLE:    36 TIME:   0.000 TIME LEFT:  2.00D  GRAD.:     5.570 HEAT: -14.76683
 CYCLE:    37 TIME:   0.000 TIME LEFT:  2.00D  GRAD.:     4.599 HEAT: -14.84249
 CYCLE:    38 TIME:   0.008 TIME LEFT:  2.00D  GRAD.:     3.448 HEAT: -14.88635
 CYCLE:    39 TIME:   0.000 TIME LEFT:  2.00D  GRAD.:     3.804 HEAT: -14.91472
 CYCLE:    40 TIME:   0.000 TIME LEFT:  2.00D  GRAD.:     4.178 HEAT: -14.92931
 CYCLE:    41 TIME:   0.000 TIME LEFT:  2.00D  GRAD.:     2.497 HEAT: -14.94398
 CYCLE:    42 TIME:   0.008 TIME LEFT:  2.00D  GRAD.:     2.614 HEAT: -14.95918
 CYCLE:    43 TIME:   0.000 TIME LEFT:  2.00D  GRAD.:     3.050 HEAT: -14.97692
 CYCLE:    44 TIME:   0.008 TIME LEFT:  2.00D  GRAD.:     3.407 HEAT: -15.00058
 CYCLE:    45 TIME:   0.000 TIME LEFT:  2.00D  GRAD.:     3.249 HEAT: -15.02134
 CYCLE:    46 TIME:   0.000 TIME LEFT:  2.00D  GRAD.:     4.291 HEAT: -15.05769
 CYCLE:    47 TIME:   0.008 TIME LEFT:  2.00D  GRAD.:     4.490 HEAT: -15.08743
 CYCLE:    48 TIME:   0.000 TIME LEFT:  2.00D  GRAD.:     5.658 HEAT: -15.15573
 CYCLE:    49 TIME:   0.008 TIME LEFT:  2.00D  GRAD.:     4.226 HEAT: -15.18560
 CYCLE:    50 TIME:   0.000 TIME LEFT:  2.00D  GRAD.:     3.699 HEAT: -15.22868
 CYCLE:    51 TIME:   0.008 TIME LEFT:  2.00D  GRAD.:     2.701 HEAT: -15.24715
 CYCLE:    52 TIME:   0.000 TIME LEFT:  2.00D  GRAD.:     2.760 HEAT: -15.27126
 CYCLE:    53 TIME:   0.000 TIME LEFT:  2.00D  GRAD.:     2.831 HEAT: -15.28416
 CYCLE:    54 TIME:   0.008 TIME LEFT:  2.00D  GRAD.:     3.046 HEAT: -15.30303
 CYCLE:    55 TIME:   0.000 TIME LEFT:  2.00D  GRAD.:     3.127 HEAT: -15.31985
 CYCLE:    56 TIME:   0.000 TIME LEFT:  2.00D  GRAD.:     3.652 HEAT: -15.34869
 CYCLE:    57 TIME:   0.008 TIME LEFT:  2.00D  GRAD.:     4.110 HEAT: -15.38332
 CYCLE:    58 TIME:   0.000 TIME LEFT:  2.00D  GRAD.:     3.512 HEAT: -15.42579
 CYCLE:    59 TIME:   0.000 TIME LEFT:  2.00D  GRAD.:     3.380 HEAT: -15.46550
 CYCLE:    60 TIME:   0.008 TIME LEFT:  2.00D  GRAD.:     2.504 HEAT: -15.48113
 CYCLE:    61 TIME:   0.000 TIME LEFT:  2.00D  GRAD.:     2.209 HEAT: -15.49552
 CYCLE:    62 TIME:   0.008 TIME LEFT:  2.00D  GRAD.:     1.871 HEAT: -15.50190
 CYCLE:    63 TIME:   0.000 TIME LEFT:  2.00D  GRAD.:     1.374 HEAT: -15.50851
 CYCLE:    64 TIME:   0.000 TIME LEFT:  2.00D  GRAD.:     0.881 HEAT: -15.51117

     GRADIENT =  0.88053  IS LESS THAN CUTOFF =  1.00000



 -------------------------------------------------------------------------------
 START_RES=(1) PM6-D3H4 charge=0
 Generated by weighted sterimol script



     GEOMETRY OPTIMISED USING EIGENVECTOR FOLLOWING (EF).     
     SCF FIELD WAS ACHIEVED                                   


                              PM6-D3H4 CALCULATION
                                                       MOPAC2016 (Version: 18.184M)
                                                       Fri Sep 21 22:30:07 2018
                                                       No. of days remaining = 285




          FINAL HEAT OF FORMATION =        -15.51117 KCAL/MOL =     -64.89875 KJ/MOL


          TOTAL ENERGY            =       -776.42634 EV
          ELECTRONIC ENERGY       =      -3387.66808 EV  POINT GROUP:     C2v 
          CORE-CORE REPULSION     =       2611.24174 EV
          COSMO AREA              =        136.13 SQUARE ANGSTROMS
          COSMO VOLUME            =        123.31 CUBIC ANGSTROMS

          GRADIENT NORM           =          0.88053 = 0.21356 PER ATOM
          IONIZATION POTENTIAL    =         11.085415 EV
          HOMO LUMO ENERGIES (EV) =        -11.085  4.146
          NO. OF FILLED LEVELS    =         16
          MOLECULAR WEIGHT        =         72.1498

          MOLECULAR DIMENSIONS (Angstroms)

            Atom       Atom       Distance
            H     9    H     6     6.87635
            H    14    H     7     2.83859
            H    15    H    17     2.80676


          SCF CALCULATIONS        =         69
 
          WALL-CLOCK TIME         =          0.219 SECONDS
          COMPUTATION TIME        =          0.415 SECONDS




   ATOM                 CHEMICAL                   X               Y               Z
  NUMBER                 SYMBOL               (ANGSTROMS)     (ANGSTROMS)     (ANGSTROMS)
 
     1       C(HETATM    1  C01 UNK     1)    0.24545398  *  -0.28700395  *  -0.13635965  *
     2       C(HETATM    2  C02 UNK     1)    0.97022586  *   1.06014429  *  -0.20821327  *
     3       C(HETATM    3  C03 UNK     1)    1.29268998  *   1.61124842  *   1.19046976  *
     4       C(HETATM    4  C04 UNK     1)    2.06729319  *   2.93735919  *   1.10873163  *
     5       C(HETATM    5  C05 UNK     1)    2.33427305  *   3.52409039  *   2.49769691  *
     6       H(HETATM    6  H01 UNK     1)    0.00355840  *  -0.63899132  *  -1.16382256  *
     7       H(HETATM    7  H02 UNK     1)    0.88850368  *  -1.04510592  *   0.36265182  *
     8       H(HETATM    8  H03 UNK     1)   -0.70088495  *  -0.18613908  *   0.43948273  *
     9       H(HETATM    9  H04 UNK     1)    2.95341140  *   4.44399465  *   2.40630853  *
    10       H(HETATM   10  H07 UNK     1)    0.32779080  *   1.79349045  *  -0.75177701  *
    11       H(HETATM   11  H08 UNK     1)    1.91926025  *   0.93297165  *  -0.78138862  *
    12       H(HETATM   12  H09 UNK     1)    1.90346830  *   0.86361000  *   1.74907571  *
    13       H(HETATM   13  H10 UNK     1)    0.34157322  *   1.77484119  *   1.74924633  *
    14       H(HETATM   14  H11 UNK     1)    1.47660367  *   3.67103608  *   0.50948843  *
    15       H(HETATM   15  H12 UNK     1)    3.04190521  *   2.76230004  *   0.59283158  *
    16       H(HETATM   16  H14 UNK     1)    2.87657791  *   2.78689845  *   3.13002103  *
    17       H(HETATM   17  H15 UNK     1)    1.37460655  *   3.78333538  *   2.99662137  *

                             CARTESIAN COORDINATES

   1    C        0.245453982    -0.287003949    -0.136359655
   2    C        0.970225863     1.060144293    -0.208213272
   3    C        1.292689983     1.611248417     1.190469760
   4    C        2.067293193     2.937359188     1.108731629
   5    C        2.334273050     3.524090393     2.497696913
   6    H        0.003558404    -0.638991316    -1.163822559
   7    H        0.888503680    -1.045105923     0.362651820
   8    H       -0.700884947    -0.186139078     0.439482730
   9    H        2.953411396     4.443994654     2.406308527
  10    H        0.327790798     1.793490454    -0.751777009
  11    H        1.919260255     0.932971646    -0.781388622
  12    H        1.903468303     0.863610002     1.749075710
  13    H        0.341573225     1.774841187     1.749246331
  14    H        1.476603672     3.671036083     0.509488429
  15    H        3.041905213     2.762300040     0.592831579
  16    H        2.876577915     2.786898450     3.130021031
  17    H        1.374606547     3.783335376     2.996621373


           Empirical Formula: C5 H12  =    17 atoms



      MOLECULAR POINT GROUP   :   C2v 


                  EIGENVALUES  
 -28.38587 -26.42807 -23.33746 -20.31098 -19.88700 -16.31115 -14.87723 -14.69674
 -13.79426 -13.44058 -12.89449 -12.33641 -11.64396 -11.48624 -11.29729 -11.08542
   4.14576   4.31934   4.74651   4.98641   5.51650   5.73161   5.93749   5.97570
   6.01993   6.22343   6.40435   6.47423   6.59550   6.66526   6.80348   6.82270


              NET ATOMIC CHARGES AND DIPOLE CONTRIBUTIONS

  ATOM NO.                 TYPE                        CHARGE      No. of ELECS.   s-Pop       p-Pop       
    1          C(HETATM    1  C01 UNK     1)          -0.462098        4.4621     1.09114     3.37095
    2          C(HETATM    2  C02 UNK     1)          -0.228031        4.2280     1.08630     3.14173
    3          C(HETATM    3  C03 UNK     1)          -0.270628        4.2706     1.09326     3.17736
    4          C(HETATM    4  C04 UNK     1)          -0.227981        4.2280     1.08653     3.14145
    5          C(HETATM    5  C05 UNK     1)          -0.462337        4.4623     1.09114     3.37120
    6          H(HETATM    6  H01 UNK     1)           0.144559        0.8554     0.85544
    7          H(HETATM    7  H02 UNK     1)           0.147137        0.8529     0.85286
    8          H(HETATM    8  H03 UNK     1)           0.147251        0.8527     0.85275
    9          H(HETATM    9  H04 UNK     1)           0.144660        0.8553     0.85534
   10          H(HETATM   10  H07 UNK     1)           0.126537        0.8735     0.87346
   11          H(HETATM   11  H08 UNK     1)           0.126741        0.8733     0.87326
   12          H(HETATM   12  H09 UNK     1)           0.133079        0.8669     0.86692
   13          H(HETATM   13  H10 UNK     1)           0.133262        0.8667     0.86674
   14          H(HETATM   14  H11 UNK     1)           0.126880        0.8731     0.87312
   15          H(HETATM   15  H12 UNK     1)           0.126591        0.8734     0.87341
   16          H(HETATM   16  H14 UNK     1)           0.147442        0.8526     0.85256
   17          H(HETATM   17  H15 UNK     1)           0.146936        0.8531     0.85306

          NET CHARGE ON RESIDUES

      Residue         Charge  Anion or
                              Cation?
      UNK     1       +0.000
 


 DIPOLE           X         Y         Z       TOTAL
 POINT-CHG.     0.011     0.020    -0.039     0.045
 HYBRID        -0.022    -0.036     0.069     0.081
 SUM           -0.011    -0.016     0.030     0.036


          ATOMIC ORBITAL ELECTRON POPULATIONS

                   Atom                  s        px        py        pz   
   C(HETATM    1  C01 UNK     1)   1.09114   1.13839   1.07198   1.16058
   C(HETATM    2  C02 UNK     1)   1.08630   1.09879   1.01179   1.03115
   C(HETATM    3  C03 UNK     1)   1.09326   1.10746   1.03358   1.03633
   C(HETATM    4  C04 UNK     1)   1.08653   1.10003   1.02662   1.01480
   C(HETATM    5  C05 UNK     1)   1.09114   1.15969   1.14255   1.06896
   H(HETATM    6  H01 UNK     1)   0.85544
   H(HETATM    7  H02 UNK     1)   0.85286
   H(HETATM    8  H03 UNK     1)   0.85275
   H(HETATM    9  H04 UNK     1)   0.85534
   H(HETATM   10  H07 UNK     1)   0.87346
   H(HETATM   11  H08 UNK     1)   0.87326
   H(HETATM   12  H09 UNK     1)   0.86692
   H(HETATM   13  H10 UNK     1)   0.86674
   H(HETATM   14  H11 UNK     1)   0.87312
   H(HETATM   15  H12 UNK     1)   0.87341
   H(HETATM   16  H14 UNK     1)   0.85256
   H(HETATM   17  H15 UNK     1)   0.85306

 **********************
 *                    *
 * JOB ENDED NORMALLY *
 *                    *
 **********************



 TOTAL JOB TIME:             0.22 SECONDS

 == MOPAC DONE ==
