 *******************************************************************************
 ** Site#: 9752         For non-commercial use only    Version 18.184M 64BITS **
 *******************************************************************************
 ** Cite this program as: MOPAC2016, Version: 18.184M, James J. P. Stewart,   **
 ** Stewart Computational Chemistry, web: HTTP://OpenMOPAC.net. Days left: 285**
 *******************************************************************************
 **                                                                           **
 **                                MOPAC2016                                  **
 **                                                                           **
 *******************************************************************************

                              PM6-D3H4 CALCULATION RESULTS

 *******************************************************************************
 *  CALCULATION DONE:                                Fri Sep 21 22:30:09 2018  *
 *  PM6-D3H4   - CORRECT DISPERSION AND HYDROGEN BOND TERMS USING THE D3H4 METHOD
 *  START_RES  - STARTING RESIDUE NUMBERS DEFINED
 *  Keyword:   START_RES=(1) 
 *
 *
 *
 *                 CHARGE ON SYSTEM = 0
 *
 *
 *
 *  T=         - A TIME OF 172800.0 SECONDS REQUESTED
 *  DUMP=N     - RESTART FILE WRITTEN EVERY  7200.000 SECONDS
 *******************************************************************************
 START_RES=(1) PM6-D3H4 charge=0
 Generated by weighted sterimol script

   ATOM                 CHEMICAL                   X               Y               Z
  NUMBER                 SYMBOL               (ANGSTROMS)     (ANGSTROMS)     (ANGSTROMS)
 
     1       C(HETATM    1  C01 UNK     1)    0.00000000  *   0.00000000  *   0.00000000  *
     2       C(HETATM    2  C02 UNK     1)    1.17100000  *   0.97500000  *  -0.22000000  *
     3       C(HETATM    3  C03 UNK     1)    1.75200000  *   1.39600000  *   1.14300000  *
     4       C(HETATM    4  C04 UNK     1)    0.76500000  *   2.34300000  *   1.85000000  *
     5       C(HETATM    5  C05 UNK     1)   -0.45800000  *   1.54200000  *   2.33400000  *
     6       H(HETATM    6  H01 UNK     1)   -0.78500000  *   0.24400000  *  -0.65300000  *
     7       H(HETATM    7  H02 UNK     1)    0.32200000  *  -0.98100000  *  -0.19000000  *
     8       H(HETATM    8  H03 UNK     1)   -0.33500000  *   0.07300000  *   0.99300000  *
     9       H(HETATM    9  H04 UNK     1)   -1.13100000  *   2.18900000  *   2.81600000  *
    10       H(HETATM   10  H07 UNK     1)    0.82800000  *   1.82500000  *  -0.73100000  *
    11       H(HETATM   11  H08 UNK     1)    1.91700000  *   0.50300000  *  -0.78700000  *
    12       H(HETATM   12  H09 UNK     1)    2.66700000  *   1.89100000  *   0.99600000  *
    13       H(HETATM   13  H10 UNK     1)    1.90600000  *   0.54400000  *   1.73700000  *
    14       H(HETATM   14  H11 UNK     1)    0.45300000  *   3.08900000  *   1.18100000  *
    15       H(HETATM   15  H12 UNK     1)    1.23900000  *   2.78900000  *   2.67500000  *
    16       H(HETATM   16  H14 UNK     1)   -0.14700000  *   0.79900000  *   3.00800000  *
    17       H(HETATM   17  H15 UNK     1)   -0.93200000  *   1.09400000  *   1.51100000  *
 

 General Reference for PM6:
 "Optimization of Parameters for Semiempirical Methods V: Modification of NDDO Approximations
 and Application to 70 Elements", J. J. P. Stewart, J. Mol. Mod., 13, 1173-1213 (2007)
 URL: http://www.springerlink.com/content/ar33482301010477/fulltext.pdf

           Empirical Formula: C5 H12  =    17 atoms



      MOLECULAR POINT GROUP   :   C1  


      RHF CALCULATION, NO. OF DOUBLY OCCUPIED LEVELS = 16


          Geometry optimization using EF

          DIAGONAL MATRIX USED AS START HESSIAN

 CYCLE:     1 TIME:   0.016 TIME LEFT:  2.00D  GRAD.:   202.588 HEAT:  30.10881
 CYCLE:     2 TIME:   0.000 TIME LEFT:  2.00D  GRAD.:   113.512 HEAT:  7.705966
 CYCLE:     3 TIME:   0.000 TIME LEFT:  2.00D  GRAD.:   136.469 HEAT:  5.068907
 CYCLE:     4 TIME:   0.008 TIME LEFT:  2.00D  GRAD.:   139.176 HEAT:  1.231570
 CYCLE:     5 TIME:   0.000 TIME LEFT:  2.00D  GRAD.:   106.239 HEAT: -2.798768
 CYCLE:     6 TIME:   0.008 TIME LEFT:  2.00D  GRAD.:    62.669 HEAT: -6.493536
 CYCLE:     7 TIME:   0.008 TIME LEFT:  2.00D  GRAD.:    32.113 HEAT: -7.902792
 CYCLE:     8 TIME:   0.000 TIME LEFT:  2.00D  GRAD.:    52.097 HEAT: -8.131971
 CYCLE:     9 TIME:   0.008 TIME LEFT:  2.00D  GRAD.:    37.475 HEAT: -9.296135
 CYCLE:    10 TIME:   0.000 TIME LEFT:  2.00D  GRAD.:    27.226 HEAT: -10.06122
 CYCLE:    11 TIME:   0.000 TIME LEFT:  2.00D  GRAD.:    33.452 HEAT: -10.57789
 CYCLE:    12 TIME:   0.008 TIME LEFT:  2.00D  GRAD.:    32.949 HEAT: -10.94406
 CYCLE:    13 TIME:   0.000 TIME LEFT:  2.00D  GRAD.:    21.728 HEAT: -11.29085
 CYCLE:    14 TIME:   0.008 TIME LEFT:  2.00D  GRAD.:    14.139 HEAT: -11.48004
 CYCLE:    15 TIME:   0.000 TIME LEFT:  2.00D  GRAD.:    10.734 HEAT: -11.58068
 CYCLE:    16 TIME:   0.000 TIME LEFT:  2.00D  GRAD.:     6.565 HEAT: -11.66260
 CYCLE:    17 TIME:   0.008 TIME LEFT:  2.00D  GRAD.:     6.186 HEAT: -11.73764
 CYCLE:    18 TIME:   0.000 TIME LEFT:  2.00D  GRAD.:     7.971 HEAT: -11.78652
 CYCLE:    19 TIME:   0.000 TIME LEFT:  2.00D  GRAD.:     5.539 HEAT: -11.82855
 CYCLE:    20 TIME:   0.008 TIME LEFT:  2.00D  GRAD.:     5.510 HEAT: -11.87679
 CYCLE:    21 TIME:   0.000 TIME LEFT:  2.00D  GRAD.:     7.659 HEAT: -11.95710
 CYCLE:    22 TIME:   0.008 TIME LEFT:  2.00D  GRAD.:     5.211 HEAT: -12.00960
 CYCLE:    23 TIME:   0.000 TIME LEFT:  2.00D  GRAD.:     3.471 HEAT: -12.04472
 CYCLE:    24 TIME:   0.000 TIME LEFT:  2.00D  GRAD.:     3.385 HEAT: -12.06368
 CYCLE:    25 TIME:   0.008 TIME LEFT:  2.00D  GRAD.:     3.094 HEAT: -12.07761
 CYCLE:    26 TIME:   0.000 TIME LEFT:  2.00D  GRAD.:     2.671 HEAT: -12.10048
 CYCLE:    27 TIME:   0.000 TIME LEFT:  2.00D  GRAD.:     2.961 HEAT: -12.12087
 CYCLE:    28 TIME:   0.008 TIME LEFT:  2.00D  GRAD.:     2.211 HEAT: -12.13286
 CYCLE:    29 TIME:   0.000 TIME LEFT:  2.00D  GRAD.:     1.906 HEAT: -12.14409
 CYCLE:    30 TIME:   0.008 TIME LEFT:  2.00D  GRAD.:     2.283 HEAT: -12.15325
 CYCLE:    31 TIME:   0.000 TIME LEFT:  2.00D  GRAD.:     2.380 HEAT: -12.16137
 CYCLE:    32 TIME:   0.000 TIME LEFT:  2.00D  GRAD.:     1.571 HEAT: -12.16748
 CYCLE:    33 TIME:   0.008 TIME LEFT:  2.00D  GRAD.:     1.190 HEAT: -12.17158
 CYCLE:    34 TIME:   0.000 TIME LEFT:  2.00D  GRAD.:     1.355 HEAT: -12.17542
 CYCLE:    35 TIME:   0.000 TIME LEFT:  2.00D  GRAD.:     1.576 HEAT: -12.17998
 CYCLE:    36 TIME:   0.008 TIME LEFT:  2.00D  GRAD.:     1.919 HEAT: -12.18866
 CYCLE:    37 TIME:   0.000 TIME LEFT:  2.00D  GRAD.:     2.185 HEAT: -12.20093
 CYCLE:    38 TIME:   0.000 TIME LEFT:  2.00D  GRAD.:     2.336 HEAT: -12.21586
 CYCLE:    39 TIME:   0.008 TIME LEFT:  2.00D  GRAD.:     2.478 HEAT: -12.23124
 CYCLE:    40 TIME:   0.000 TIME LEFT:  2.00D  GRAD.:     2.432 HEAT: -12.24473
 CYCLE:    41 TIME:   0.000 TIME LEFT:  2.00D  GRAD.:     2.516 HEAT: -12.25912
 CYCLE:    42 TIME:   0.008 TIME LEFT:  2.00D  GRAD.:     3.144 HEAT: -12.28040
 CYCLE:    43 TIME:   0.000 TIME LEFT:  2.00D  GRAD.:     2.351 HEAT: -12.29446
 CYCLE:    44 TIME:   0.008 TIME LEFT:  2.00D  GRAD.:     4.813 HEAT: -12.30445
 CYCLE:    45 TIME:   0.000 TIME LEFT:  2.00D  GRAD.:     2.317 HEAT: -12.32308
 CYCLE:    46 TIME:   0.000 TIME LEFT:  2.00D  GRAD.:     1.456 HEAT: -12.32907
 CYCLE:    47 TIME:   0.008 TIME LEFT:  2.00D  GRAD.:     2.992 HEAT: -12.33759
 CYCLE:    48 TIME:   0.000 TIME LEFT:  2.00D  GRAD.:     2.016 HEAT: -12.34381
 CYCLE:    49 TIME:   0.000 TIME LEFT:  2.00D  GRAD.:     1.682 HEAT: -12.35713
 CYCLE:    50 TIME:   0.008 TIME LEFT:  2.00D  GRAD.:     1.263 HEAT: -12.36198
 CYCLE:    51 TIME:   0.000 TIME LEFT:  2.00D  GRAD.:     3.198 HEAT: -12.36787
 CYCLE:    52 TIME:   0.008 TIME LEFT:  2.00D  GRAD.:     1.698 HEAT: -12.37377
 CYCLE:    53 TIME:   0.000 TIME LEFT:  2.00D  GRAD.:     1.282 HEAT: -12.37849
 CYCLE:    54 TIME:   0.000 TIME LEFT:  2.00D  GRAD.:     1.529 HEAT: -12.38904
 CYCLE:    55 TIME:   0.008 TIME LEFT:  2.00D  GRAD.:     3.306 HEAT: -12.40047
 CYCLE:    56 TIME:   0.000 TIME LEFT:  2.00D  GRAD.:     3.089 HEAT: -12.41164
 CYCLE:    57 TIME:   0.000 TIME LEFT:  2.00D  GRAD.:     3.769 HEAT: -12.49033
 CYCLE:    58 TIME:   0.008 TIME LEFT:  2.00D  GRAD.:     5.038 HEAT: -12.55433
 CYCLE:    59 TIME:   0.008 TIME LEFT:  2.00D  GRAD.:    11.082 HEAT: -12.55721
 CYCLE:    60 TIME:   0.000 TIME LEFT:  2.00D  GRAD.:     4.940 HEAT: -12.65568
 CYCLE:    61 TIME:   0.008 TIME LEFT:  2.00D  GRAD.:     5.948 HEAT: -12.69916
 CYCLE:    62 TIME:   0.000 TIME LEFT:  2.00D  GRAD.:     3.416 HEAT: -12.72532
 CYCLE:    63 TIME:   0.000 TIME LEFT:  2.00D  GRAD.:     6.285 HEAT: -12.74438
 CYCLE:    64 TIME:   0.008 TIME LEFT:  2.00D  GRAD.:     2.385 HEAT: -12.76460
 CYCLE:    65 TIME:   0.000 TIME LEFT:  2.00D  GRAD.:     2.635 HEAT: -12.78105
 CYCLE:    66 TIME:   0.000 TIME LEFT:  2.00D  GRAD.:     2.552 HEAT: -12.79799
 CYCLE:    67 TIME:   0.008 TIME LEFT:  2.00D  GRAD.:     2.786 HEAT: -12.81392
 CYCLE:    68 TIME:   0.008 TIME LEFT:  2.00D  GRAD.:     2.292 HEAT: -12.82495
 CYCLE:    69 TIME:   0.000 TIME LEFT:  2.00D  GRAD.:     2.088 HEAT: -12.83646
 CYCLE:    70 TIME:   0.008 TIME LEFT:  2.00D  GRAD.:     4.745 HEAT: -12.84003
 CYCLE:    71 TIME:   0.000 TIME LEFT:  2.00D  GRAD.:     2.700 HEAT: -12.85058
 CYCLE:    72 TIME:   0.000 TIME LEFT:  2.00D  GRAD.:     2.184 HEAT: -12.85949
 CYCLE:    73 TIME:   0.008 TIME LEFT:  2.00D  GRAD.:     1.909 HEAT: -12.86564
 CYCLE:    74 TIME:   0.000 TIME LEFT:  2.00D  GRAD.:     2.174 HEAT: -12.87801
 CYCLE:    75 TIME:   0.008 TIME LEFT:  2.00D  GRAD.:     2.357 HEAT: -12.89046
 CYCLE:    76 TIME:   0.000 TIME LEFT:  2.00D  GRAD.:     2.848 HEAT: -12.90526
 CYCLE:    77 TIME:   0.008 TIME LEFT:  2.00D  GRAD.:     2.643 HEAT: -12.91550
 CYCLE:    78 TIME:   0.000 TIME LEFT:  2.00D  GRAD.:     6.036 HEAT: -12.93716
 CYCLE:    79 TIME:   0.000 TIME LEFT:  2.00D  GRAD.:     4.256 HEAT: -12.95217
 CYCLE:    80 TIME:   0.008 TIME LEFT:  2.00D  GRAD.:     3.356 HEAT: -12.97451
 CYCLE:    81 TIME:   0.000 TIME LEFT:  2.00D  GRAD.:     6.598 HEAT: -13.01956
 CYCLE:    82 TIME:   0.000 TIME LEFT:  2.00D  GRAD.:     3.245 HEAT: -13.05451
 CYCLE:    83 TIME:   0.008 TIME LEFT:  2.00D  GRAD.:     5.234 HEAT: -13.09966
 CYCLE:    84 TIME:   0.000 TIME LEFT:  2.00D  GRAD.:     8.224 HEAT: -13.14692
 CYCLE:    85 TIME:   0.000 TIME LEFT:  2.00D  GRAD.:     4.272 HEAT: -13.17703
 CYCLE:    86 TIME:   0.008 TIME LEFT:  2.00D  GRAD.:     3.700 HEAT: -13.21878
 CYCLE:    87 TIME:   0.000 TIME LEFT:  2.00D  GRAD.:     7.249 HEAT: -13.26435
 CYCLE:    88 TIME:   0.000 TIME LEFT:  2.00D  GRAD.:     2.845 HEAT: -13.29124
 CYCLE:    89 TIME:   0.008 TIME LEFT:  2.00D  GRAD.:     5.599 HEAT: -13.30510
 CYCLE:    90 TIME:   0.000 TIME LEFT:  2.00D  GRAD.:     4.646 HEAT: -13.32923
 CYCLE:    91 TIME:   0.000 TIME LEFT:  2.00D  GRAD.:     1.528 HEAT: -13.34154
 CYCLE:    92 TIME:   0.008 TIME LEFT:  2.00D  GRAD.:     2.084 HEAT: -13.35480
 CYCLE:    93 TIME:   0.000 TIME LEFT:  2.00D  GRAD.:     2.067 HEAT: -13.36370
 CYCLE:    94 TIME:   0.000 TIME LEFT:  2.00D  GRAD.:     1.347 HEAT: -13.36884
 CYCLE:    95 TIME:   0.008 TIME LEFT:  2.00D  GRAD.:     1.265 HEAT: -13.37221
 CYCLE:    96 TIME:   0.000 TIME LEFT:  2.00D  GRAD.:     1.878 HEAT: -13.37756
 CYCLE:    97 TIME:   0.008 TIME LEFT:  2.00D  GRAD.:     1.489 HEAT: -13.38138
 CYCLE:    98 TIME:   0.000 TIME LEFT:  2.00D  GRAD.:     1.477 HEAT: -13.38608
 CYCLE:    99 TIME:   0.008 TIME LEFT:  2.00D  GRAD.:     1.775 HEAT: -13.39344
 CYCLE:   100 TIME:   0.000 TIME LEFT:  2.00D  GRAD.:     2.206 HEAT: -13.39972
 CYCLE:   101 TIME:   0.000 TIME LEFT:  2.00D  GRAD.:     2.949 HEAT: -13.41731
 CYCLE:   102 TIME:   0.008 TIME LEFT:  2.00D  GRAD.:     3.687 HEAT: -13.44001
 CYCLE:   103 TIME:   0.000 TIME LEFT:  2.00D  GRAD.:     3.572 HEAT: -13.45476
 CYCLE:   104 TIME:   0.008 TIME LEFT:  2.00D  GRAD.:     2.177 HEAT: -13.46670
 CYCLE:   105 TIME:   0.000 TIME LEFT:  2.00D  GRAD.:     1.558 HEAT: -13.47238
 CYCLE:   106 TIME:   0.000 TIME LEFT:  2.00D  GRAD.:     1.404 HEAT: -13.47704
 CYCLE:   107 TIME:   0.008 TIME LEFT:  2.00D  GRAD.:     1.915 HEAT: -13.47998
 CYCLE:   108 TIME:   0.000 TIME LEFT:  2.00D  GRAD.:     1.522 HEAT: -13.48446
 CYCLE:   109 TIME:   0.000 TIME LEFT:  2.00D  GRAD.:     1.439 HEAT: -13.48767
 CYCLE:   110 TIME:   0.008 TIME LEFT:  2.00D  GRAD.:     1.641 HEAT: -13.49379
 CYCLE:   111 TIME:   0.000 TIME LEFT:  2.00D  GRAD.:     1.669 HEAT: -13.49801
 CYCLE:   112 TIME:   0.008 TIME LEFT:  2.00D  GRAD.:     2.119 HEAT: -13.50488
 CYCLE:   113 TIME:   0.000 TIME LEFT:  2.00D  GRAD.:     2.000 HEAT: -13.51389
 CYCLE:   114 TIME:   0.000 TIME LEFT:  2.00D  GRAD.:     1.543 HEAT: -13.52520
 CYCLE:   115 TIME:   0.008 TIME LEFT:  2.00D  GRAD.:     1.196 HEAT: -13.53398
 CYCLE:   116 TIME:   0.000 TIME LEFT:  2.00D  GRAD.:     0.673 HEAT: -13.53655

     GRADIENT =  0.67275  IS LESS THAN CUTOFF =  1.00000



 -------------------------------------------------------------------------------
 START_RES=(1) PM6-D3H4 charge=0
 Generated by weighted sterimol script



     GEOMETRY OPTIMISED USING EIGENVECTOR FOLLOWING (EF).     
     SCF FIELD WAS ACHIEVED                                   


                              PM6-D3H4 CALCULATION
                                                       MOPAC2016 (Version: 18.184M)
                                                       Fri Sep 21 22:30:09 2018
                                                       No. of days remaining = 285




          FINAL HEAT OF FORMATION =        -13.53655 KCAL/MOL =     -56.63692 KJ/MOL


          TOTAL ENERGY            =       -776.34517 EV
          ELECTRONIC ENERGY       =      -3459.40802 EV  POINT GROUP:     C1  
          CORE-CORE REPULSION     =       2683.06285 EV
          COSMO AREA              =        131.54 SQUARE ANGSTROMS
          COSMO VOLUME            =        123.24 CUBIC ANGSTROMS

          GRADIENT NORM           =          0.67275 = 0.16317 PER ATOM
          IONIZATION POTENTIAL    =         11.006802 EV
          HOMO LUMO ENERGIES (EV) =        -11.007  4.318
          NO. OF FILLED LEVELS    =         16
          MOLECULAR WEIGHT        =         72.1498

          MOLECULAR DIMENSIONS (Angstroms)

            Atom       Atom       Distance
            H     9    H     7     5.44738
            H    12    H    17     3.75097
            H    16    H    14     2.77631


          SCF CALCULATIONS        =        122
 
          WALL-CLOCK TIME         =          0.375 SECONDS
          COMPUTATION TIME        =          0.698 SECONDS




   ATOM                 CHEMICAL                   X               Y               Z
  NUMBER                 SYMBOL               (ANGSTROMS)     (ANGSTROMS)     (ANGSTROMS)
 
     1       C(HETATM    1  C01 UNK     1)    0.29043392  *  -0.38304879  *  -0.21656949  *
     2       C(HETATM    2  C02 UNK     1)    1.04366137  *   0.95107372  *  -0.18423496  *
     3       C(HETATM    3  C03 UNK     1)    1.60128495  *   1.29452244  *   1.21110948  *
     4       C(HETATM    4  C04 UNK     1)    0.82285109  *   2.40242133  *   1.94292584  *
     5       C(HETATM    5  C05 UNK     1)   -0.57855569  *   1.97330449  *   2.38600257  *
     6       H(HETATM    6  H01 UNK     1)   -0.53903913  *  -0.37342945  *   0.52437654  *
     7       H(HETATM    7  H02 UNK     1)   -0.13416453  *  -0.55302751  *  -1.23017604  *
     8       H(HETATM    8  H03 UNK     1)    0.97907766  *  -1.22141382  *   0.02750581  *
     9       H(HETATM    9  H04 UNK     1)   -1.05605211  *   2.79009184  *   2.97072544  *
    10       H(HETATM   10  H07 UNK     1)    0.35526721  *   1.76112997  *  -0.52309456  *
    11       H(HETATM   11  H08 UNK     1)    1.89291986  *   0.89706706  *  -0.90732229  *
    12       H(HETATM   12  H09 UNK     1)    2.65787069  *   1.63828095  *   1.09619134  *
    13       H(HETATM   13  H10 UNK     1)    1.60598326  *   0.37776267  *   1.84621757  *
    14       H(HETATM   14  H11 UNK     1)    0.73733397  *   3.29303195  *   1.27527179  *
    15       H(HETATM   15  H12 UNK     1)    1.40824635  *   2.69951852  *   2.84787628  *
    16       H(HETATM   16  H14 UNK     1)   -0.52132432  *   1.06065107  *   3.01937595  *
    17       H(HETATM   17  H15 UNK     1)   -1.21039518  *   1.75053111  *   1.49777975  *

                             CARTESIAN COORDINATES

   1    C        0.290433916    -0.383048790    -0.216569492
   2    C        1.043661370     0.951073718    -0.184234956
   3    C        1.601284948     1.294522441     1.211109484
   4    C        0.822851088     2.402421331     1.942925836
   5    C       -0.578555687     1.973304493     2.386002570
   6    H       -0.539039133    -0.373429446     0.524376540
   7    H       -0.134164527    -0.553027507    -1.230176044
   8    H        0.979077659    -1.221413820     0.027505809
   9    H       -1.056052114     2.790091842     2.970725435
  10    H        0.355267206     1.761129966    -0.523094563
  11    H        1.892919864     0.897067064    -0.907322286
  12    H        2.657870692     1.638280951     1.096191344
  13    H        1.605983259     0.377762667     1.846217570
  14    H        0.737333970     3.293031946     1.275271794
  15    H        1.408246348     2.699518520     2.847876276
  16    H       -0.521324316     1.060651068     3.019375951
  17    H       -1.210395175     1.750531108     1.497779750


           Empirical Formula: C5 H12  =    17 atoms



      MOLECULAR POINT GROUP   :   C1  


                  EIGENVALUES  
 -28.40499 -26.07618 -23.58003 -20.80031 -19.39522 -15.85653 -15.14809 -14.68557
 -13.87981 -13.31926 -12.67878 -12.34117 -11.95413 -11.30693 -11.14419 -11.00680
   4.31824   4.45857   4.63865   4.74509   5.71458   5.77571   5.94740   6.02255
   6.07822   6.23540   6.32675   6.50963   6.60728   6.64002   6.82985   6.94733


              NET ATOMIC CHARGES AND DIPOLE CONTRIBUTIONS

  ATOM NO.                 TYPE                        CHARGE      No. of ELECS.   s-Pop       p-Pop       
    1          C(HETATM    1  C01 UNK     1)          -0.462006        4.4620     1.09190     3.37010
    2          C(HETATM    2  C02 UNK     1)          -0.219628        4.2196     1.08629     3.13334
    3          C(HETATM    3  C03 UNK     1)          -0.271256        4.2713     1.09400     3.17725
    4          C(HETATM    4  C04 UNK     1)          -0.223296        4.2233     1.08698     3.13632
    5          C(HETATM    5  C05 UNK     1)          -0.457493        4.4575     1.09076     3.36673
    6          H(HETATM    6  H01 UNK     1)           0.149804        0.8502     0.85020
    7          H(HETATM    7  H02 UNK     1)           0.142238        0.8578     0.85776
    8          H(HETATM    8  H03 UNK     1)           0.144944        0.8551     0.85506
    9          H(HETATM    9  H04 UNK     1)           0.141022        0.8590     0.85898
   10          H(HETATM   10  H07 UNK     1)           0.129763        0.8702     0.87024
   11          H(HETATM   11  H08 UNK     1)           0.120615        0.8794     0.87938
   12          H(HETATM   12  H09 UNK     1)           0.124672        0.8753     0.87533
   13          H(HETATM   13  H10 UNK     1)           0.137507        0.8625     0.86249
   14          H(HETATM   14  H11 UNK     1)           0.125614        0.8744     0.87439
   15          H(HETATM   15  H12 UNK     1)           0.122044        0.8780     0.87796
   16          H(HETATM   16  H14 UNK     1)           0.146073        0.8539     0.85393
   17          H(HETATM   17  H15 UNK     1)           0.149382        0.8506     0.85062

          NET CHARGE ON RESIDUES

      Residue         Charge  Anion or
                              Cation?
      UNK     1       +0.000
 


 DIPOLE           X         Y         Z       TOTAL
 POINT-CHG.     0.050     0.058    -0.006     0.077
 HYBRID        -0.074    -0.081     0.023     0.112
 SUM           -0.024    -0.023     0.017     0.037


          ATOMIC ORBITAL ELECTRON POPULATIONS

                   Atom                  s        px        py        pz   
   C(HETATM    1  C01 UNK     1)   1.09190   1.13697   1.07382   1.15932
   C(HETATM    2  C02 UNK     1)   1.08629   1.08611   1.02400   1.02323
   C(HETATM    3  C03 UNK     1)   1.09400   1.07492   1.07858   1.02375
   C(HETATM    4  C04 UNK     1)   1.08698   0.99539   1.05030   1.09062
   C(HETATM    5  C05 UNK     1)   1.09076   1.06332   1.15115   1.15227
   H(HETATM    6  H01 UNK     1)   0.85020
   H(HETATM    7  H02 UNK     1)   0.85776
   H(HETATM    8  H03 UNK     1)   0.85506
   H(HETATM    9  H04 UNK     1)   0.85898
   H(HETATM   10  H07 UNK     1)   0.87024
   H(HETATM   11  H08 UNK     1)   0.87938
   H(HETATM   12  H09 UNK     1)   0.87533
   H(HETATM   13  H10 UNK     1)   0.86249
   H(HETATM   14  H11 UNK     1)   0.87439
   H(HETATM   15  H12 UNK     1)   0.87796
   H(HETATM   16  H14 UNK     1)   0.85393
   H(HETATM   17  H15 UNK     1)   0.85062

 **********************
 *                    *
 * JOB ENDED NORMALLY *
 *                    *
 **********************



 TOTAL JOB TIME:             0.38 SECONDS

 == MOPAC DONE ==
