 *******************************************************************************
 ** Site#: 9752         For non-commercial use only    Version 18.184M 64BITS **
 *******************************************************************************
 ** Cite this program as: MOPAC2016, Version: 18.184M, James J. P. Stewart,   **
 ** Stewart Computational Chemistry, web: HTTP://OpenMOPAC.net. Days left: 285**
 *******************************************************************************
 **                                                                           **
 **                                MOPAC2016                                  **
 **                                                                           **
 *******************************************************************************

                              PM6-D3H4 CALCULATION RESULTS

 *******************************************************************************
 *  CALCULATION DONE:                                Fri Sep 21 22:30:10 2018  *
 *  PM6-D3H4   - CORRECT DISPERSION AND HYDROGEN BOND TERMS USING THE D3H4 METHOD
 *  START_RES  - STARTING RESIDUE NUMBERS DEFINED
 *  Keyword:   START_RES=(1) 
 *
 *
 *
 *                 CHARGE ON SYSTEM = 0
 *
 *
 *
 *  T=         - A TIME OF 172800.0 SECONDS REQUESTED
 *  DUMP=N     - RESTART FILE WRITTEN EVERY  7200.000 SECONDS
 *******************************************************************************
 START_RES=(1) PM6-D3H4 charge=0
 Generated by weighted sterimol script

   ATOM                 CHEMICAL                   X               Y               Z
  NUMBER                 SYMBOL               (ANGSTROMS)     (ANGSTROMS)     (ANGSTROMS)
 
     1       C(HETATM    1  C01 UNK     1)    0.00000000  *   0.00000000  *   0.00000000  *
     2       C(HETATM    2  C02 UNK     1)    1.17100000  *   0.97500000  *  -0.22000000  *
     3       C(HETATM    3  C03 UNK     1)    1.75200000  *   1.39600000  *   1.14300000  *
     4       C(HETATM    4  C04 UNK     1)    2.52100000  *   0.21300000  *   1.76000000  *
     5       C(HETATM    5  C05 UNK     1)    2.45300000  *  -0.99600000  *   0.80900000  *
     6       H(HETATM    6  H01 UNK     1)   -0.78500000  *   0.24400000  *  -0.65300000  *
     7       H(HETATM    7  H02 UNK     1)    0.32200000  *  -0.98100000  *  -0.19000000  *
     8       H(HETATM    8  H03 UNK     1)   -0.33500000  *   0.07300000  *   0.99300000  *
     9       H(HETATM    9  H04 UNK     1)    2.97700000  *  -1.80300000  *   1.23000000  *
    10       H(HETATM   10  H07 UNK     1)    0.82800000  *   1.82500000  *  -0.73100000  *
    11       H(HETATM   11  H08 UNK     1)    1.91700000  *   0.50300000  *  -0.78700000  *
    12       H(HETATM   12  H09 UNK     1)    0.97000000  *   1.67700000  *   1.78600000  *
    13       H(HETATM   13  H10 UNK     1)    2.40500000  *   2.20700000  *   1.01100000  *
    14       H(HETATM   14  H11 UNK     1)    2.09100000  *  -0.04200000  *   2.68200000  *
    15       H(HETATM   15  H12 UNK     1)    3.52500000  *   0.48700000  *   1.90500000  *
    16       H(HETATM   16  H14 UNK     1)    2.88700000  *  -0.74200000  *  -0.11400000  *
    17       H(HETATM   17  H15 UNK     1)    1.45000000  *  -1.27000000  *   0.66100000  *
 

 General Reference for PM6:
 "Optimization of Parameters for Semiempirical Methods V: Modification of NDDO Approximations
 and Application to 70 Elements", J. J. P. Stewart, J. Mol. Mod., 13, 1173-1213 (2007)
 URL: http://www.springerlink.com/content/ar33482301010477/fulltext.pdf

           Empirical Formula: C5 H12  =    17 atoms



      MOLECULAR POINT GROUP   :   C1  


      RHF CALCULATION, NO. OF DOUBLY OCCUPIED LEVELS = 16


          Geometry optimization using EF

          DIAGONAL MATRIX USED AS START HESSIAN

 CYCLE:     1 TIME:   0.008 TIME LEFT:  2.00D  GRAD.:   180.260 HEAT:  27.91736
 CYCLE:     2 TIME:   0.000 TIME LEFT:  2.00D  GRAD.:   120.919 HEAT:  12.74059
 CYCLE:     3 TIME:   0.008 TIME LEFT:  2.00D  GRAD.:    64.980 HEAT:  5.834453
 CYCLE:     4 TIME:   0.000 TIME LEFT:  2.00D  GRAD.:    77.705 HEAT:  2.716505
 CYCLE:     5 TIME:   0.008 TIME LEFT:  2.00D  GRAD.:   111.505 HEAT:  1.804752
 CYCLE:     6 TIME:   0.000 TIME LEFT:  2.00D  GRAD.:   108.277 HEAT: 0.2215499
 CYCLE:     7 TIME:   0.000 TIME LEFT:  2.00D  GRAD.:   113.012 HEAT:-0.6747969
 CYCLE:     8 TIME:   0.008 TIME LEFT:  2.00D  GRAD.:    92.115 HEAT: -2.534818
 CYCLE:     9 TIME:   0.000 TIME LEFT:  2.00D  GRAD.:    53.300 HEAT: -5.516756
 CYCLE:    10 TIME:   0.000 TIME LEFT:  2.00D  GRAD.:    36.910 HEAT: -6.573720
 CYCLE:    11 TIME:   0.008 TIME LEFT:  2.00D  GRAD.:    38.681 HEAT: -7.100378
 CYCLE:    12 TIME:   0.000 TIME LEFT:  2.00D  GRAD.:    23.780 HEAT: -8.036561
 CYCLE:    13 TIME:   0.008 TIME LEFT:  2.00D  GRAD.:    25.332 HEAT: -8.438263
 CYCLE:    14 TIME:   0.000 TIME LEFT:  2.00D  GRAD.:    13.230 HEAT: -8.956493
 CYCLE:    15 TIME:   0.000 TIME LEFT:  2.00D  GRAD.:    13.232 HEAT: -9.075160
 CYCLE:    16 TIME:   0.008 TIME LEFT:  2.00D  GRAD.:     7.278 HEAT: -9.150740
 CYCLE:    17 TIME:   0.000 TIME LEFT:  2.00D  GRAD.:     7.434 HEAT: -9.162732
 CYCLE:    18 TIME:   0.000 TIME LEFT:  2.00D  GRAD.:     2.669 HEAT: -9.188517
 CYCLE:    19 TIME:   0.008 TIME LEFT:  2.00D  GRAD.:     2.685 HEAT: -9.198721
 CYCLE:    20 TIME:   0.000 TIME LEFT:  2.00D  GRAD.:     3.022 HEAT: -9.210502
 CYCLE:    21 TIME:   0.008 TIME LEFT:  2.00D  GRAD.:     2.595 HEAT: -9.220091
 CYCLE:    22 TIME:   0.000 TIME LEFT:  2.00D  GRAD.:     2.552 HEAT: -9.227949
 CYCLE:    23 TIME:   0.008 TIME LEFT:  2.00D  GRAD.:     2.346 HEAT: -9.235867
 CYCLE:    24 TIME:   0.000 TIME LEFT:  2.00D  GRAD.:     2.250 HEAT: -9.248046
 CYCLE:    25 TIME:   0.000 TIME LEFT:  2.00D  GRAD.:     2.497 HEAT: -9.260937
 CYCLE:    26 TIME:   0.008 TIME LEFT:  2.00D  GRAD.:     1.924 HEAT: -9.271484
 CYCLE:    27 TIME:   0.000 TIME LEFT:  2.00D  GRAD.:     1.608 HEAT: -9.279282
 CYCLE:    28 TIME:   0.000 TIME LEFT:  2.00D  GRAD.:     1.485 HEAT: -9.284848
 CYCLE:    29 TIME:   0.008 TIME LEFT:  2.00D  GRAD.:     1.717 HEAT: -9.291338
 CYCLE:    30 TIME:   0.000 TIME LEFT:  2.00D  GRAD.:     2.049 HEAT: -9.300643
 CYCLE:    31 TIME:   0.000 TIME LEFT:  2.00D  GRAD.:     2.138 HEAT: -9.311592
 CYCLE:    32 TIME:   0.008 TIME LEFT:  2.00D  GRAD.:     2.017 HEAT: -9.324759
 CYCLE:    33 TIME:   0.000 TIME LEFT:  2.00D  GRAD.:     1.621 HEAT: -9.330291
 CYCLE:    34 TIME:   0.000 TIME LEFT:  2.00D  GRAD.:     1.344 HEAT: -9.337627
 CYCLE:    35 TIME:   0.008 TIME LEFT:  2.00D  GRAD.:     0.951 HEAT: -9.340005

     GRADIENT =  0.95102  IS LESS THAN CUTOFF =  1.00000



 -------------------------------------------------------------------------------
 START_RES=(1) PM6-D3H4 charge=0
 Generated by weighted sterimol script



     GEOMETRY OPTIMISED USING EIGENVECTOR FOLLOWING (EF).     
     SCF FIELD WAS ACHIEVED                                   


                              PM6-D3H4 CALCULATION
                                                       MOPAC2016 (Version: 18.184M)
                                                       Fri Sep 21 22:30:10 2018
                                                       No. of days remaining = 285




          FINAL HEAT OF FORMATION =         -9.34001 KCAL/MOL =     -39.07858 KJ/MOL


          TOTAL ENERGY            =       -776.19004 EV
          ELECTRONIC ENERGY       =      -3480.42680 EV  POINT GROUP:     C1  
          CORE-CORE REPULSION     =       2704.23676 EV
          COSMO AREA              =        131.04 SQUARE ANGSTROMS
          COSMO VOLUME            =        123.12 CUBIC ANGSTROMS

          GRADIENT NORM           =          0.95102 = 0.23066 PER ATOM
          IONIZATION POTENTIAL    =         10.851945 EV
          HOMO LUMO ENERGIES (EV) =        -10.852  4.293
          NO. OF FILLED LEVELS    =         16
          MOLECULAR WEIGHT        =         72.1498

          MOLECULAR DIMENSIONS (Angstroms)

            Atom       Atom       Distance
            H     9    H     6     5.46194
            H     7    H    13     3.98810
            H    14    H    11     3.12778


          SCF CALCULATIONS        =         38
 
          WALL-CLOCK TIME         =          0.117 SECONDS
          COMPUTATION TIME        =          0.220 SECONDS




   ATOM                 CHEMICAL                   X               Y               Z
  NUMBER                 SYMBOL               (ANGSTROMS)     (ANGSTROMS)     (ANGSTROMS)
 
     1       C(HETATM    1  C01 UNK     1)   -0.16920884  *   0.12580230  *  -0.13863090  *
     2       C(HETATM    2  C02 UNK     1)    1.05771588  *   1.04203565  *  -0.23931984  *
     3       C(HETATM    3  C03 UNK     1)    1.74971716  *   1.32422628  *   1.10467644  *
     4       C(HETATM    4  C04 UNK     1)    2.57543562  *   0.19003239  *   1.75188895  *
     5       C(HETATM    5  C05 UNK     1)    2.66707334  *  -1.13088066  *   0.98609633  *
     6       H(HETATM    6  H01 UNK     1)   -1.01079943  *   0.55103882  *  -0.72789816  *
     7       H(HETATM    7  H02 UNK     1)    0.06441125  *  -0.88484575  *  -0.53836468  *
     8       H(HETATM    8  H03 UNK     1)   -0.49568697  *   0.02072251  *   0.91938644  *
     9       H(HETATM    9  H04 UNK     1)    3.37738711  *  -1.81254625  *   1.50593753  *
    10       H(HETATM   10  H07 UNK     1)    0.72661242  *   2.02762088  *  -0.65346138  *
    11       H(HETATM   11  H08 UNK     1)    1.79293207  *   0.60585007  *  -0.95457649  *
    12       H(HETATM   12  H09 UNK     1)    0.96486364  *   1.64314624  *   1.83382173  *
    13       H(HETATM   13  H10 UNK     1)    2.43469997  *   2.19386349  *   0.94361451  *
    14       H(HETATM   14  H11 UNK     1)    2.13629278  *  -0.02751455  *   2.75666675  *
    15       H(HETATM   15  H12 UNK     1)    3.61590739  *   0.56969773  *   1.90688672  *
    16       H(HETATM   16  H14 UNK     1)    3.03215498  *  -0.96163429  *  -0.04955528  *
    17       H(HETATM   17  H15 UNK     1)    1.66937921  *  -1.62041747  *   0.94474618  *

                             CARTESIAN COORDINATES

   1    C       -0.169208840     0.125802303    -0.138630897
   2    C        1.057715878     1.042035655    -0.239319839
   3    C        1.749717160     1.324226275     1.104676443
   4    C        2.575435618     0.190032390     1.751888950
   5    C        2.667073344    -1.130880657     0.986096327
   6    H       -1.010799425     0.551038824    -0.727898165
   7    H        0.064411252    -0.884845747    -0.538364678
   8    H       -0.495686966     0.020722507     0.919386441
   9    H        3.377387107    -1.812546251     1.505937528
  10    H        0.726612425     2.027620883    -0.653461384
  11    H        1.792932071     0.605850066    -0.954576486
  12    H        0.964863641     1.643146236     1.833821728
  13    H        2.434699967     2.193863493     0.943614515
  14    H        2.136292778    -0.027514549     2.756666749
  15    H        3.615907395     0.569697729     1.906886723
  16    H        3.032154983    -0.961634288    -0.049555284
  17    H        1.669379209    -1.620417468     0.944746183


           Empirical Formula: C5 H12  =    17 atoms



      MOLECULAR POINT GROUP   :   C1  


                  EIGENVALUES  
 -28.35042 -25.92329 -23.77388 -21.20857 -18.70676 -15.87470 -15.67199 -14.34020
 -13.71158 -13.48219 -12.58554 -12.25468 -12.13007 -11.23835 -11.07635 -10.85194
   4.29281   4.45152   4.59408   4.95730   5.59625   5.67819   5.99046   6.03628
   6.07874   6.28811   6.36616   6.51287   6.57557   6.63483   6.86488   7.01211


              NET ATOMIC CHARGES AND DIPOLE CONTRIBUTIONS

  ATOM NO.                 TYPE                        CHARGE      No. of ELECS.   s-Pop       p-Pop       
    1          C(HETATM    1  C01 UNK     1)          -0.458891        4.4589     1.09124     3.36766
    2          C(HETATM    2  C02 UNK     1)          -0.212235        4.2122     1.08491     3.12732
    3          C(HETATM    3  C03 UNK     1)          -0.271370        4.2714     1.09465     3.17672
    4          C(HETATM    4  C04 UNK     1)          -0.220072        4.2201     1.08602     3.13405
    5          C(HETATM    5  C05 UNK     1)          -0.451742        4.4517     1.08969     3.36205
    6          H(HETATM    6  H01 UNK     1)           0.140173        0.8598     0.85983
    7          H(HETATM    7  H02 UNK     1)           0.144050        0.8559     0.85595
    8          H(HETATM    8  H03 UNK     1)           0.151163        0.8488     0.84884
    9          H(HETATM    9  H04 UNK     1)           0.138834        0.8612     0.86117
   10          H(HETATM   10  H07 UNK     1)           0.118802        0.8812     0.88120
   11          H(HETATM   11  H08 UNK     1)           0.128080        0.8719     0.87192
   12          H(HETATM   12  H09 UNK     1)           0.129621        0.8704     0.87038
   13          H(HETATM   13  H10 UNK     1)           0.124524        0.8755     0.87548
   14          H(HETATM   14  H11 UNK     1)           0.121790        0.8782     0.87821
   15          H(HETATM   15  H12 UNK     1)           0.120444        0.8796     0.87956
   16          H(HETATM   16  H14 UNK     1)           0.147245        0.8528     0.85275
   17          H(HETATM   17  H15 UNK     1)           0.149582        0.8504     0.85042

          NET CHARGE ON RESIDUES

      Residue         Charge  Anion or
                              Cation?
      UNK     1       +0.000
 


 DIPOLE           X         Y         Z       TOTAL
 POINT-CHG.     0.021     0.087     0.033     0.095
 HYBRID        -0.043    -0.060    -0.006     0.074
 SUM           -0.022     0.027     0.027     0.044


          ATOMIC ORBITAL ELECTRON POPULATIONS

                   Atom                  s        px        py        pz   
   C(HETATM    1  C01 UNK     1)   1.09124   1.08136   1.12073   1.16556
   C(HETATM    2  C02 UNK     1)   1.08491   1.02227   1.07539   1.02966
   C(HETATM    3  C03 UNK     1)   1.09465   1.08256   1.05387   1.04029
   C(HETATM    4  C04 UNK     1)   1.08602   1.08953   0.98095   1.06358
   C(HETATM    5  C05 UNK     1)   1.08969   1.16078   1.06553   1.13574
   H(HETATM    6  H01 UNK     1)   0.85983
   H(HETATM    7  H02 UNK     1)   0.85595
   H(HETATM    8  H03 UNK     1)   0.84884
   H(HETATM    9  H04 UNK     1)   0.86117
   H(HETATM   10  H07 UNK     1)   0.88120
   H(HETATM   11  H08 UNK     1)   0.87192
   H(HETATM   12  H09 UNK     1)   0.87038
   H(HETATM   13  H10 UNK     1)   0.87548
   H(HETATM   14  H11 UNK     1)   0.87821
   H(HETATM   15  H12 UNK     1)   0.87956
   H(HETATM   16  H14 UNK     1)   0.85275
   H(HETATM   17  H15 UNK     1)   0.85042

 **********************
 *                    *
 * JOB ENDED NORMALLY *
 *                    *
 **********************



 TOTAL JOB TIME:             0.12 SECONDS

 == MOPAC DONE ==
