 *******************************************************************************
 ** Site#: 9752         For non-commercial use only    Version 18.184M 64BITS **
 *******************************************************************************
 ** Cite this program as: MOPAC2016, Version: 18.184M, James J. P. Stewart,   **
 ** Stewart Computational Chemistry, web: HTTP://OpenMOPAC.net. Days left: 285**
 *******************************************************************************
 **                                                                           **
 **                                MOPAC2016                                  **
 **                                                                           **
 *******************************************************************************

                              PM6-D3H4 CALCULATION RESULTS

 *******************************************************************************
 *  CALCULATION DONE:                                Fri Sep 21 22:30:12 2018  *
 *  PM6-D3H4   - CORRECT DISPERSION AND HYDROGEN BOND TERMS USING THE D3H4 METHOD
 *  START_RES  - STARTING RESIDUE NUMBERS DEFINED
 *  Keyword:   START_RES=(1) 
 *
 *
 *
 *                 CHARGE ON SYSTEM = 0
 *
 *
 *
 *  T=         - A TIME OF 172800.0 SECONDS REQUESTED
 *  DUMP=N     - RESTART FILE WRITTEN EVERY  7200.000 SECONDS
 *******************************************************************************
 START_RES=(1) PM6-D3H4 charge=0
 Generated by weighted sterimol script

   ATOM                 CHEMICAL                   X               Y               Z
  NUMBER                 SYMBOL               (ANGSTROMS)     (ANGSTROMS)     (ANGSTROMS)
 
     1       C(HETATM    1  C01 UNK     1)    0.00000000  *   0.00000000  *   0.00000000  *
     2       C(HETATM    2  C02 UNK     1)    1.17100000  *   0.97500000  *  -0.22000000  *
     3       C(HETATM    3  C03 UNK     1)    1.75200000  *   1.39600000  *   1.14300000  *
     4       C(HETATM    4  C04 UNK     1)    0.96800000  *   0.70100000  *   2.27100000  *
     5       C(HETATM    5  C05 UNK     1)   -0.43200000  *   1.33200000  *   2.38800000  *
     6       H(HETATM    6  H01 UNK     1)   -0.78500000  *   0.24400000  *  -0.65300000  *
     7       H(HETATM    7  H02 UNK     1)    0.32200000  *  -0.98100000  *  -0.19000000  *
     8       H(HETATM    8  H03 UNK     1)   -0.33500000  *   0.07300000  *   0.99300000  *
     9       H(HETATM    9  H04 UNK     1)   -0.96600000  *   0.85800000  *   3.15900000  *
    10       H(HETATM   10  H07 UNK     1)    0.82800000  *   1.82500000  *  -0.73100000  *
    11       H(HETATM   11  H08 UNK     1)    1.91700000  *   0.50300000  *  -0.78700000  *
    12       H(HETATM   12  H09 UNK     1)    1.67100000  *   2.43800000  *   1.25200000  *
    13       H(HETATM   13  H10 UNK     1)    2.76200000  *   1.11600000  *   1.19600000  *
    14       H(HETATM   14  H11 UNK     1)    1.48100000  *   0.81700000  *   3.17900000  *
    15       H(HETATM   15  H12 UNK     1)    0.87200000  *  -0.32100000  *   2.05200000  *
    16       H(HETATM   16  H14 UNK     1)   -0.94800000  *   1.21200000  *   1.48100000  *
    17       H(HETATM   17  H15 UNK     1)   -0.33800000  *   2.35500000  *   2.60600000  *
 

 General Reference for PM6:
 "Optimization of Parameters for Semiempirical Methods V: Modification of NDDO Approximations
 and Application to 70 Elements", J. J. P. Stewart, J. Mol. Mod., 13, 1173-1213 (2007)
 URL: http://www.springerlink.com/content/ar33482301010477/fulltext.pdf

           Empirical Formula: C5 H12  =    17 atoms



      MOLECULAR POINT GROUP   :   C1  


      RHF CALCULATION, NO. OF DOUBLY OCCUPIED LEVELS = 16


          Geometry optimization using EF

          DIAGONAL MATRIX USED AS START HESSIAN

 CYCLE:     1 TIME:   0.008 TIME LEFT:  2.00D  GRAD.:   201.526 HEAT:  41.11040
 CYCLE:     2 TIME:   0.008 TIME LEFT:  2.00D  GRAD.:   104.052 HEAT:  18.04686
 CYCLE:     3 TIME:   0.000 TIME LEFT:  2.00D  GRAD.:   132.281 HEAT:  12.31107
 CYCLE:     4 TIME:   0.000 TIME LEFT:  2.00D  GRAD.:   114.747 HEAT:  5.730557
 CYCLE:     5 TIME:   0.008 TIME LEFT:  2.00D  GRAD.:    97.805 HEAT:  1.249819
 CYCLE:     6 TIME:   0.000 TIME LEFT:  2.00D  GRAD.:    86.194 HEAT:-0.7839924
 CYCLE:     7 TIME:   0.008 TIME LEFT:  2.00D  GRAD.:    75.451 HEAT: -2.054391
 CYCLE:     8 TIME:   0.000 TIME LEFT:  2.00D  GRAD.:    51.560 HEAT: -4.357969
 CYCLE:     9 TIME:   0.008 TIME LEFT:  2.00D  GRAD.:    46.274 HEAT: -5.102310
 CYCLE:    10 TIME:   0.000 TIME LEFT:  2.00D  GRAD.:    24.111 HEAT: -6.359498
 CYCLE:    11 TIME:   0.008 TIME LEFT:  2.00D  GRAD.:    31.543 HEAT: -6.942295
 CYCLE:    12 TIME:   0.000 TIME LEFT:  2.00D  GRAD.:    34.168 HEAT: -7.192768
 CYCLE:    13 TIME:   0.008 TIME LEFT:  2.00D  GRAD.:    15.423 HEAT: -7.793382
 CYCLE:    14 TIME:   0.000 TIME LEFT:  2.00D  GRAD.:    13.013 HEAT: -7.939995
 CYCLE:    15 TIME:   0.008 TIME LEFT:  2.00D  GRAD.:     9.261 HEAT: -8.056693
 CYCLE:    16 TIME:   0.000 TIME LEFT:  2.00D  GRAD.:     6.309 HEAT: -8.125186
 CYCLE:    17 TIME:   0.000 TIME LEFT:  2.00D  GRAD.:     5.419 HEAT: -8.167974
 CYCLE:    18 TIME:   0.008 TIME LEFT:  2.00D  GRAD.:     4.622 HEAT: -8.203332
 CYCLE:    19 TIME:   0.000 TIME LEFT:  2.00D  GRAD.:     4.150 HEAT: -8.234839
 CYCLE:    20 TIME:   0.008 TIME LEFT:  2.00D  GRAD.:     4.995 HEAT: -8.286864
 CYCLE:    21 TIME:   0.000 TIME LEFT:  2.00D  GRAD.:     7.317 HEAT: -8.348327
 CYCLE:    22 TIME:   0.000 TIME LEFT:  2.00D  GRAD.:     7.528 HEAT: -8.399372
 CYCLE:    23 TIME:   0.008 TIME LEFT:  2.00D  GRAD.:     6.556 HEAT: -8.459887
 CYCLE:    24 TIME:   0.000 TIME LEFT:  2.00D  GRAD.:     8.273 HEAT: -8.575574
 CYCLE:    25 TIME:   0.008 TIME LEFT:  2.00D  GRAD.:    11.000 HEAT: -8.725100
 CYCLE:    26 TIME:   0.000 TIME LEFT:  2.00D  GRAD.:    22.695 HEAT: -8.953350
 CYCLE:    27 TIME:   0.000 TIME LEFT:  2.00D  GRAD.:    16.186 HEAT: -9.356403
 CYCLE:    28 TIME:   0.008 TIME LEFT:  2.00D  GRAD.:    13.246 HEAT: -9.959176
 CYCLE:    29 TIME:   0.000 TIME LEFT:  2.00D  GRAD.:    27.240 HEAT: -10.26817
 CYCLE:    30 TIME:   0.000 TIME LEFT:  2.00D  GRAD.:    20.619 HEAT: -10.47749
 CYCLE:    31 TIME:   0.008 TIME LEFT:  2.00D  GRAD.:    11.406 HEAT: -10.92013
 CYCLE:    32 TIME:   0.000 TIME LEFT:  2.00D  GRAD.:    18.606 HEAT: -11.33679
 CYCLE:    33 TIME:   0.008 TIME LEFT:  2.00D  GRAD.:    16.856 HEAT: -11.79251
 CYCLE:    34 TIME:   0.000 TIME LEFT:  2.00D  GRAD.:    15.633 HEAT: -12.78333
 CYCLE:    35 TIME:   0.000 TIME LEFT:  2.00D  GRAD.:    14.824 HEAT: -12.84679
 CYCLE:    36 TIME:   0.008 TIME LEFT:  2.00D  GRAD.:    11.136 HEAT: -13.18257
 CYCLE:    37 TIME:   0.000 TIME LEFT:  2.00D  GRAD.:     8.217 HEAT: -13.29940
 CYCLE:    38 TIME:   0.000 TIME LEFT:  2.00D  GRAD.:     7.595 HEAT: -13.40788
 CYCLE:    39 TIME:   0.008 TIME LEFT:  2.00D  GRAD.:     5.161 HEAT: -13.48316
 CYCLE:    40 TIME:   0.000 TIME LEFT:  2.00D  GRAD.:     4.275 HEAT: -13.52857
 CYCLE:    41 TIME:   0.000 TIME LEFT:  2.00D  GRAD.:     4.246 HEAT: -13.55080
 CYCLE:    42 TIME:   0.008 TIME LEFT:  2.00D  GRAD.:     3.502 HEAT: -13.56786
 CYCLE:    43 TIME:   0.000 TIME LEFT:  2.00D  GRAD.:     2.668 HEAT: -13.58254
 CYCLE:    44 TIME:   0.008 TIME LEFT:  2.00D  GRAD.:     2.752 HEAT: -13.59842
 CYCLE:    45 TIME:   0.000 TIME LEFT:  2.00D  GRAD.:     2.488 HEAT: -13.61891
 CYCLE:    46 TIME:   0.000 TIME LEFT:  2.00D  GRAD.:     2.232 HEAT: -13.63341
 CYCLE:    47 TIME:   0.008 TIME LEFT:  2.00D  GRAD.:     2.191 HEAT: -13.64658
 CYCLE:    48 TIME:   0.000 TIME LEFT:  2.00D  GRAD.:     2.460 HEAT: -13.65963
 CYCLE:    49 TIME:   0.008 TIME LEFT:  2.00D  GRAD.:     2.833 HEAT: -13.67756
 CYCLE:    50 TIME:   0.000 TIME LEFT:  2.00D  GRAD.:     3.101 HEAT: -13.69943
 CYCLE:    51 TIME:   0.000 TIME LEFT:  2.00D  GRAD.:     3.469 HEAT: -13.73964
 CYCLE:    52 TIME:   0.008 TIME LEFT:  2.00D  GRAD.:     3.102 HEAT: -13.75516
 CYCLE:    53 TIME:   0.000 TIME LEFT:  2.00D  GRAD.:     2.777 HEAT: -13.77916
 CYCLE:    54 TIME:   0.000 TIME LEFT:  2.00D  GRAD.:     2.883 HEAT: -13.80153
 CYCLE:    55 TIME:   0.008 TIME LEFT:  2.00D  GRAD.:     5.173 HEAT: -13.83425
 CYCLE:    56 TIME:   0.000 TIME LEFT:  2.00D  GRAD.:     3.475 HEAT: -13.86024
 CYCLE:    57 TIME:   0.008 TIME LEFT:  2.00D  GRAD.:     2.823 HEAT: -13.89715
 CYCLE:    58 TIME:   0.000 TIME LEFT:  2.00D  GRAD.:     2.039 HEAT: -13.91501
 CYCLE:    59 TIME:   0.000 TIME LEFT:  2.00D  GRAD.:     4.148 HEAT: -13.93119
 CYCLE:    60 TIME:   0.008 TIME LEFT:  2.00D  GRAD.:     1.517 HEAT: -13.94305
 CYCLE:    61 TIME:   0.000 TIME LEFT:  2.00D  GRAD.:     1.172 HEAT: -13.94901
 CYCLE:    62 TIME:   0.008 TIME LEFT:  2.00D  GRAD.:     0.983 HEAT: -13.95409

     GRADIENT =  0.98295  IS LESS THAN CUTOFF =  1.00000



 -------------------------------------------------------------------------------
 START_RES=(1) PM6-D3H4 charge=0
 Generated by weighted sterimol script



     GEOMETRY OPTIMISED USING EIGENVECTOR FOLLOWING (EF).     
     SCF FIELD WAS ACHIEVED                                   


                              PM6-D3H4 CALCULATION
                                                       MOPAC2016 (Version: 18.184M)
                                                       Fri Sep 21 22:30:13 2018
                                                       No. of days remaining = 285




          FINAL HEAT OF FORMATION =        -13.95409 KCAL/MOL =     -58.38390 KJ/MOL


          TOTAL ENERGY            =       -776.36510 EV
          ELECTRONIC ENERGY       =      -3457.55631 EV  POINT GROUP:     C1  
          CORE-CORE REPULSION     =       2681.19121 EV
          COSMO AREA              =        131.96 SQUARE ANGSTROMS
          COSMO VOLUME            =        123.29 CUBIC ANGSTROMS

          GRADIENT NORM           =          0.98295 = 0.23840 PER ATOM
          IONIZATION POTENTIAL    =         11.038559 EV
          HOMO LUMO ENERGIES (EV) =        -11.039  4.400
          NO. OF FILLED LEVELS    =         16
          MOLECULAR WEIGHT        =         72.1498

          MOLECULAR DIMENSIONS (Angstroms)

            Atom       Atom       Distance
            H     9    H     6     5.71369
            H    12    H     8     3.55749
            H    13    H    16     2.91973


          SCF CALCULATIONS        =         66
 
          WALL-CLOCK TIME         =          0.211 SECONDS
          COMPUTATION TIME        =          0.402 SECONDS




   ATOM                 CHEMICAL                   X               Y               Z
  NUMBER                 SYMBOL               (ANGSTROMS)     (ANGSTROMS)     (ANGSTROMS)
 
     1       C(HETATM    1  C01 UNK     1)    0.38160222  *  -0.35175929  *  -0.54473340  *
     2       C(HETATM    2  C02 UNK     1)    0.83933929  *   1.06191237  *  -0.17241573  *
     3       C(HETATM    3  C03 UNK     1)    1.60988678  *   1.13519378  *   1.15702720  *
     4       C(HETATM    4  C04 UNK     1)    0.79020072  *   0.75142229  *   2.40059849  *
     5       C(HETATM    5  C05 UNK     1)   -0.27827261  *   1.78373211  *   2.77214545  *
     6       H(HETATM    6  H01 UNK     1)    0.04962237  *  -0.37031358  *  -1.60624121  *
     7       H(HETATM    7  H02 UNK     1)    1.21301218  *  -1.07892791  *  -0.41601922  *
     8       H(HETATM    8  H03 UNK     1)   -0.46901675  *  -0.66277663  *   0.10094085  *
     9       H(HETATM    9  H04 UNK     1)   -0.75955613  *   1.49557300  *   3.73323511  *
    10       H(HETATM   10  H07 UNK     1)   -0.05384970  *   1.72884066  *  -0.11619890  *
    11       H(HETATM   11  H08 UNK     1)    1.51205875  *   1.44279794  *  -0.98071764  *
    12       H(HETATM   12  H09 UNK     1)    1.98445275  *   2.17983918  *   1.28386890  *
    13       H(HETATM   13  H10 UNK     1)    2.49265141  *   0.45349464  *   1.09576914  *
    14       H(HETATM   14  H11 UNK     1)    1.49597684  *   0.64304143  *   3.26095566  *
    15       H(HETATM   15  H12 UNK     1)    0.29675216  *  -0.23416132  *   2.22802826  *
    16       H(HETATM   16  H14 UNK     1)   -1.05918838  *   1.83147834  *   1.98173156  *
    17       H(HETATM   17  H15 UNK     1)    0.17936670  *   2.79123380  *   2.88593787  *

                             CARTESIAN COORDINATES

   1    C        0.381602217    -0.351759287    -0.544733397
   2    C        0.839339293     1.061912374    -0.172415734
   3    C        1.609886785     1.135193777     1.157027200
   4    C        0.790200718     0.751422287     2.400598488
   5    C       -0.278272608     1.783732106     2.772145450
   6    H        0.049622366    -0.370313583    -1.606241211
   7    H        1.213012178    -1.078927915    -0.416019215
   8    H       -0.469016750    -0.662776628     0.100940849
   9    H       -0.759556128     1.495572999     3.733235108
  10    H       -0.053849696     1.728840662    -0.116198900
  11    H        1.512058751     1.442797944    -0.980717637
  12    H        1.984452747     2.179839180     1.283868896
  13    H        2.492651406     0.453494641     1.095769138
  14    H        1.495976841     0.643041426     3.260955658
  15    H        0.296752159    -0.234161323     2.228028259
  16    H       -1.059188379     1.831478336     1.981731561
  17    H        0.179366704     2.791233803     2.885937872


           Empirical Formula: C5 H12  =    17 atoms



      MOLECULAR POINT GROUP   :   C1  


                  EIGENVALUES  
 -28.41387 -26.05104 -23.46376 -21.33151 -18.82155 -15.84623 -15.60068 -14.07458
 -13.95276 -13.75519 -12.50950 -12.17862 -12.14539 -11.26184 -11.10569 -11.03856
   4.40032   4.43243   4.55980   4.83890   5.69510   5.79746   5.97751   5.98747
   6.08012   6.25993   6.28409   6.54194   6.55784   6.61121   6.90164   6.91285


              NET ATOMIC CHARGES AND DIPOLE CONTRIBUTIONS

  ATOM NO.                 TYPE                        CHARGE      No. of ELECS.   s-Pop       p-Pop       
    1          C(HETATM    1  C01 UNK     1)          -0.459304        4.4593     1.09082     3.36848
    2          C(HETATM    2  C02 UNK     1)          -0.220626        4.2206     1.08598     3.13465
    3          C(HETATM    3  C03 UNK     1)          -0.269198        4.2692     1.09347     3.17573
    4          C(HETATM    4  C04 UNK     1)          -0.220560        4.2206     1.08570     3.13486
    5          C(HETATM    5  C05 UNK     1)          -0.459706        4.4597     1.09101     3.36869
    6          H(HETATM    6  H01 UNK     1)           0.141833        0.8582     0.85817
    7          H(HETATM    7  H02 UNK     1)           0.146785        0.8532     0.85322
    8          H(HETATM    8  H03 UNK     1)           0.147297        0.8527     0.85270
    9          H(HETATM    9  H04 UNK     1)           0.141993        0.8580     0.85801
   10          H(HETATM   10  H07 UNK     1)           0.128276        0.8717     0.87172
   11          H(HETATM   11  H08 UNK     1)           0.121164        0.8788     0.87884
   12          H(HETATM   12  H09 UNK     1)           0.129321        0.8707     0.87068
   13          H(HETATM   13  H10 UNK     1)           0.128508        0.8715     0.87149
   14          H(HETATM   14  H11 UNK     1)           0.120989        0.8790     0.87901
   15          H(HETATM   15  H12 UNK     1)           0.129606        0.8704     0.87039
   16          H(HETATM   16  H14 UNK     1)           0.147924        0.8521     0.85208
   17          H(HETATM   17  H15 UNK     1)           0.145701        0.8543     0.85430

          NET CHARGE ON RESIDUES

      Residue         Charge  Anion or
                              Cation?
      UNK     1       +0.000
 


 DIPOLE           X         Y         Z       TOTAL
 POINT-CHG.     0.049     0.008    -0.005     0.049
 HYBRID        -0.050    -0.010     0.000     0.051
 SUM           -0.002    -0.002    -0.004     0.005


          ATOMIC ORBITAL ELECTRON POPULATIONS

                   Atom                  s        px        py        pz   
   C(HETATM    1  C01 UNK     1)   1.09082   1.15391   1.06600   1.14857
   C(HETATM    2  C02 UNK     1)   1.08598   1.09513   1.01273   1.02679
   C(HETATM    3  C03 UNK     1)   1.09347   1.06206   1.12846   0.98521
   C(HETATM    4  C04 UNK     1)   1.08570   1.03766   1.06023   1.03697
   C(HETATM    5  C05 UNK     1)   1.09101   1.10656   1.11162   1.15052
   H(HETATM    6  H01 UNK     1)   0.85817
   H(HETATM    7  H02 UNK     1)   0.85322
   H(HETATM    8  H03 UNK     1)   0.85270
   H(HETATM    9  H04 UNK     1)   0.85801
   H(HETATM   10  H07 UNK     1)   0.87172
   H(HETATM   11  H08 UNK     1)   0.87884
   H(HETATM   12  H09 UNK     1)   0.87068
   H(HETATM   13  H10 UNK     1)   0.87149
   H(HETATM   14  H11 UNK     1)   0.87901
   H(HETATM   15  H12 UNK     1)   0.87039
   H(HETATM   16  H14 UNK     1)   0.85208
   H(HETATM   17  H15 UNK     1)   0.85430

 **********************
 *                    *
 * JOB ENDED NORMALLY *
 *                    *
 **********************



 TOTAL JOB TIME:             0.22 SECONDS

 == MOPAC DONE ==
