 *******************************************************************************
 ** Site#: 9752         For non-commercial use only    Version 18.184M 64BITS **
 *******************************************************************************
 ** Cite this program as: MOPAC2016, Version: 18.184M, James J. P. Stewart,   **
 ** Stewart Computational Chemistry, web: HTTP://OpenMOPAC.net. Days left: 285**
 *******************************************************************************
 **                                                                           **
 **                                MOPAC2016                                  **
 **                                                                           **
 *******************************************************************************

                              PM6-D3H4 CALCULATION RESULTS

 *******************************************************************************
 *  CALCULATION DONE:                                Fri Sep 21 22:30:10 2018  *
 *  PM6-D3H4   - CORRECT DISPERSION AND HYDROGEN BOND TERMS USING THE D3H4 METHOD
 *  START_RES  - STARTING RESIDUE NUMBERS DEFINED
 *  Keyword:   START_RES=(1) 
 *
 *
 *
 *                 CHARGE ON SYSTEM = 0
 *
 *
 *
 *  T=         - A TIME OF 172800.0 SECONDS REQUESTED
 *  DUMP=N     - RESTART FILE WRITTEN EVERY  7200.000 SECONDS
 *******************************************************************************
 START_RES=(1) PM6-D3H4 charge=0
 Generated by weighted sterimol script

   ATOM                 CHEMICAL                   X               Y               Z
  NUMBER                 SYMBOL               (ANGSTROMS)     (ANGSTROMS)     (ANGSTROMS)
 
     1       C(HETATM    1  C01 UNK     1)    0.00000000  *   0.00000000  *   0.00000000  *
     2       C(HETATM    2  C02 UNK     1)    1.17100000  *   0.97500000  *  -0.22000000  *
     3       C(HETATM    3  C03 UNK     1)    1.75200000  *   1.39600000  *   1.14300000  *
     4       C(HETATM    4  C04 UNK     1)    0.76500000  *   2.34300000  *   1.85000000  *
     5       C(HETATM    5  C05 UNK     1)   -0.47300000  *   2.55300000  *   0.96000000  *
     6       H(HETATM    6  H01 UNK     1)   -0.78500000  *   0.24400000  *  -0.65300000  *
     7       H(HETATM    7  H02 UNK     1)    0.32200000  *  -0.98100000  *  -0.19000000  *
     8       H(HETATM    8  H03 UNK     1)   -0.33500000  *   0.07300000  *   0.99300000  *
     9       H(HETATM    9  H04 UNK     1)   -1.14600000  *   3.20000000  *   1.44200000  *
    10       H(HETATM   10  H07 UNK     1)    0.82800000  *   1.82500000  *  -0.73100000  *
    11       H(HETATM   11  H08 UNK     1)    1.91700000  *   0.50300000  *  -0.78700000  *
    12       H(HETATM   12  H09 UNK     1)    2.66700000  *   1.89100000  *   0.99600000  *
    13       H(HETATM   13  H10 UNK     1)    1.90600000  *   0.54400000  *   1.73700000  *
    14       H(HETATM   14  H11 UNK     1)    1.23100000  *   3.26700000  *   2.02700000  *
    15       H(HETATM   15  H12 UNK     1)    0.46900000  *   1.92000000  *   2.76500000  *
    16       H(HETATM   16  H14 UNK     1)   -0.94200000  *   1.63000000  *   0.78600000  *
    17       H(HETATM   17  H15 UNK     1)   -0.17900000  *   2.97500000  *   0.04400000  *
 

 General Reference for PM6:
 "Optimization of Parameters for Semiempirical Methods V: Modification of NDDO Approximations
 and Application to 70 Elements", J. J. P. Stewart, J. Mol. Mod., 13, 1173-1213 (2007)
 URL: http://www.springerlink.com/content/ar33482301010477/fulltext.pdf

           Empirical Formula: C5 H12  =    17 atoms



      MOLECULAR POINT GROUP   :   C1  


      RHF CALCULATION, NO. OF DOUBLY OCCUPIED LEVELS = 16


          Geometry optimization using EF

          DIAGONAL MATRIX USED AS START HESSIAN

 CYCLE:     1 TIME:   0.008 TIME LEFT:  2.00D  GRAD.:   177.046 HEAT:  23.50799
 CYCLE:     2 TIME:   0.008 TIME LEFT:  2.00D  GRAD.:   112.537 HEAT:  9.392971
 CYCLE:     3 TIME:   0.000 TIME LEFT:  2.00D  GRAD.:    65.888 HEAT:  3.957398
 CYCLE:     4 TIME:   0.008 TIME LEFT:  2.00D  GRAD.:    69.931 HEAT: 0.9184973
 CYCLE:     5 TIME:   0.000 TIME LEFT:  2.00D  GRAD.:    80.011 HEAT: -1.279136
 CYCLE:     6 TIME:   0.008 TIME LEFT:  2.00D  GRAD.:    56.304 HEAT: -3.715825
 CYCLE:     7 TIME:   0.000 TIME LEFT:  2.00D  GRAD.:    42.076 HEAT: -4.824230
 CYCLE:     8 TIME:   0.008 TIME LEFT:  2.00D  GRAD.:    31.300 HEAT: -5.868720
 CYCLE:     9 TIME:   0.000 TIME LEFT:  2.00D  GRAD.:    27.790 HEAT: -6.895115
 CYCLE:    10 TIME:   0.008 TIME LEFT:  2.00D  GRAD.:    20.098 HEAT: -8.041522
 CYCLE:    11 TIME:   0.000 TIME LEFT:  2.00D  GRAD.:    22.171 HEAT: -8.779538
 CYCLE:    12 TIME:   0.000 TIME LEFT:  2.00D  GRAD.:    27.000 HEAT: -8.893056
 CYCLE:    13 TIME:   0.008 TIME LEFT:  2.00D  GRAD.:    24.036 HEAT: -9.068655
 CYCLE:    14 TIME:   0.000 TIME LEFT:  2.00D  GRAD.:    10.400 HEAT: -9.314348
 CYCLE:    15 TIME:   0.008 TIME LEFT:  2.00D  GRAD.:     8.545 HEAT: -9.367728
 CYCLE:    16 TIME:   0.000 TIME LEFT:  2.00D  GRAD.:     5.904 HEAT: -9.405360
 CYCLE:    17 TIME:   0.000 TIME LEFT:  2.00D  GRAD.:     4.741 HEAT: -9.424829
 CYCLE:    18 TIME:   0.008 TIME LEFT:  2.00D  GRAD.:     3.494 HEAT: -9.439328
 CYCLE:    19 TIME:   0.000 TIME LEFT:  2.00D  GRAD.:     3.317 HEAT: -9.451855
 CYCLE:    20 TIME:   0.008 TIME LEFT:  2.00D  GRAD.:     3.015 HEAT: -9.467144
 CYCLE:    21 TIME:   0.000 TIME LEFT:  2.00D  GRAD.:     4.501 HEAT: -9.497985
 CYCLE:    22 TIME:   0.000 TIME LEFT:  2.00D  GRAD.:     5.155 HEAT: -9.521976
 CYCLE:    23 TIME:   0.008 TIME LEFT:  2.00D  GRAD.:     5.196 HEAT: -9.567660
 CYCLE:    24 TIME:   0.000 TIME LEFT:  2.00D  GRAD.:     7.562 HEAT: -9.664969
 CYCLE:    25 TIME:   0.008 TIME LEFT:  2.00D  GRAD.:     6.189 HEAT: -9.719523
 CYCLE:    26 TIME:   0.000 TIME LEFT:  2.00D  GRAD.:     6.347 HEAT: -9.842962
 CYCLE:    27 TIME:   0.000 TIME LEFT:  2.00D  GRAD.:    11.549 HEAT: -10.10039
 CYCLE:    28 TIME:   0.008 TIME LEFT:  2.00D  GRAD.:     9.550 HEAT: -10.26271
 CYCLE:    29 TIME:   0.000 TIME LEFT:  2.00D  GRAD.:    12.870 HEAT: -10.53122
 CYCLE:    30 TIME:   0.008 TIME LEFT:  2.00D  GRAD.:    14.593 HEAT: -10.63218
 CYCLE:    31 TIME:   0.000 TIME LEFT:  2.00D  GRAD.:    19.783 HEAT: -10.83817
 CYCLE:    32 TIME:   0.000 TIME LEFT:  2.00D  GRAD.:    11.027 HEAT: -11.07099
 CYCLE:    33 TIME:   0.008 TIME LEFT:  2.00D  GRAD.:     7.387 HEAT: -11.28418
 CYCLE:    34 TIME:   0.000 TIME LEFT:  2.00D  GRAD.:    15.477 HEAT: -11.64827
 CYCLE:    35 TIME:   0.000 TIME LEFT:  2.00D  GRAD.:    12.781 HEAT: -11.92919
 CYCLE:    36 TIME:   0.008 TIME LEFT:  2.00D  GRAD.:    17.214 HEAT: -12.15732
 CYCLE:    37 TIME:   0.000 TIME LEFT:  2.00D  GRAD.:    12.209 HEAT: -12.46453
 CYCLE:    38 TIME:   0.000 TIME LEFT:  2.00D  GRAD.:    12.568 HEAT: -12.69212
 CYCLE:    39 TIME:   0.008 TIME LEFT:  2.00D  GRAD.:    10.125 HEAT: -12.86087
 CYCLE:    40 TIME:   0.000 TIME LEFT:  2.00D  GRAD.:    10.001 HEAT: -12.94597
 CYCLE:    41 TIME:   0.008 TIME LEFT:  2.00D  GRAD.:     5.632 HEAT: -13.03350
 CYCLE:    42 TIME:   0.000 TIME LEFT:  2.00D  GRAD.:     7.280 HEAT: -13.07966
 CYCLE:    43 TIME:   0.000 TIME LEFT:  2.00D  GRAD.:     4.960 HEAT: -13.13085
 CYCLE:    44 TIME:   0.008 TIME LEFT:  2.00D  GRAD.:     4.332 HEAT: -13.16584
 CYCLE:    45 TIME:   0.000 TIME LEFT:  2.00D  GRAD.:     4.361 HEAT: -13.20809
 CYCLE:    46 TIME:   0.008 TIME LEFT:  2.00D  GRAD.:     9.702 HEAT: -13.24792
 CYCLE:    47 TIME:   0.000 TIME LEFT:  2.00D  GRAD.:     6.123 HEAT: -13.31409
 CYCLE:    48 TIME:   0.000 TIME LEFT:  2.00D  GRAD.:     4.264 HEAT: -13.35100
 CYCLE:    49 TIME:   0.008 TIME LEFT:  2.00D  GRAD.:     3.078 HEAT: -13.40135
 CYCLE:    50 TIME:   0.000 TIME LEFT:  2.00D  GRAD.:     3.966 HEAT: -13.43251
 CYCLE:    51 TIME:   0.008 TIME LEFT:  2.00D  GRAD.:     4.117 HEAT: -13.46260
 CYCLE:    52 TIME:   0.000 TIME LEFT:  2.00D  GRAD.:     4.055 HEAT: -13.48439
 CYCLE:    53 TIME:   0.000 TIME LEFT:  2.00D  GRAD.:     4.473 HEAT: -13.52297
 CYCLE:    54 TIME:   0.008 TIME LEFT:  2.00D  GRAD.:     4.871 HEAT: -13.55442
 CYCLE:    55 TIME:   0.000 TIME LEFT:  2.00D  GRAD.:     7.178 HEAT: -13.64194
 CYCLE:    56 TIME:   0.000 TIME LEFT:  2.00D  GRAD.:     7.224 HEAT: -13.74414
 CYCLE:    57 TIME:   0.008 TIME LEFT:  2.00D  GRAD.:     9.425 HEAT: -13.81844
 CYCLE:    58 TIME:   0.008 TIME LEFT:  2.00D  GRAD.:     3.733 HEAT: -13.87124
 CYCLE:    59 TIME:   0.000 TIME LEFT:  2.00D  GRAD.:     2.979 HEAT: -13.89633
 CYCLE:    60 TIME:   0.000 TIME LEFT:  2.00D  GRAD.:     2.320 HEAT: -13.92245
 CYCLE:    61 TIME:   0.008 TIME LEFT:  2.00D  GRAD.:     2.050 HEAT: -13.93681
 CYCLE:    62 TIME:   0.000 TIME LEFT:  2.00D  GRAD.:     2.534 HEAT: -13.94697
 CYCLE:    63 TIME:   0.000 TIME LEFT:  2.00D  GRAD.:     1.420 HEAT: -13.95194
 CYCLE:    64 TIME:   0.008 TIME LEFT:  2.00D  GRAD.:     1.435 HEAT: -13.95937
 CYCLE:    65 TIME:   0.000 TIME LEFT:  2.00D  GRAD.:     1.203 HEAT: -13.96442
 CYCLE:    66 TIME:   0.008 TIME LEFT:  2.00D  GRAD.:     1.466 HEAT: -13.96979
 CYCLE:    67 TIME:   0.000 TIME LEFT:  2.00D  GRAD.:     1.334 HEAT: -13.97216
 CYCLE:    68 TIME:   0.000 TIME LEFT:  2.00D  GRAD.:     1.261 HEAT: -13.97668
 CYCLE:    69 TIME:   0.008 TIME LEFT:  2.00D  GRAD.:     1.145 HEAT: -13.97889
 CYCLE:    70 TIME:   0.000 TIME LEFT:  2.00D  GRAD.:     1.157 HEAT: -13.98398
 CYCLE:    71 TIME:   0.000 TIME LEFT:  2.00D  GRAD.:     0.960 HEAT: -13.98603

     GRADIENT =  0.95969  IS LESS THAN CUTOFF =  1.00000



 -------------------------------------------------------------------------------
 START_RES=(1) PM6-D3H4 charge=0
 Generated by weighted sterimol script



     GEOMETRY OPTIMISED USING EIGENVECTOR FOLLOWING (EF).     
     SCF FIELD WAS ACHIEVED                                   


                              PM6-D3H4 CALCULATION
                                                       MOPAC2016 (Version: 18.184M)
                                                       Fri Sep 21 22:30:10 2018
                                                       No. of days remaining = 285




          FINAL HEAT OF FORMATION =        -13.98603 KCAL/MOL =     -58.51754 KJ/MOL


          TOTAL ENERGY            =       -776.37233 EV
          ELECTRONIC ENERGY       =      -3443.72873 EV  POINT GROUP:     C1  
          CORE-CORE REPULSION     =       2667.35640 EV
          COSMO AREA              =        133.17 SQUARE ANGSTROMS
          COSMO VOLUME            =        122.85 CUBIC ANGSTROMS

          GRADIENT NORM           =          0.95969 = 0.23276 PER ATOM
          IONIZATION POTENTIAL    =         11.049906 EV
          HOMO LUMO ENERGIES (EV) =        -11.050  4.368
          NO. OF FILLED LEVELS    =         16
          MOLECULAR WEIGHT        =         72.1498

          MOLECULAR DIMENSIONS (Angstroms)

            Atom       Atom       Distance
            H     9    H     6     5.86477
            H    13    H    16     3.42928
            H     8    H    12     3.15546


          SCF CALCULATIONS        =         76
 
          WALL-CLOCK TIME         =          0.234 SECONDS
          COMPUTATION TIME        =          0.457 SECONDS




   ATOM                 CHEMICAL                   X               Y               Z
  NUMBER                 SYMBOL               (ANGSTROMS)     (ANGSTROMS)     (ANGSTROMS)
 
     1       C(HETATM    1  C01 UNK     1)    0.40322706  *  -0.64817182  *   0.07200287  *
     2       C(HETATM    2  C02 UNK     1)    0.87096713  *   0.75794267  *  -0.31666495  *
     3       C(HETATM    3  C03 UNK     1)    1.50601829  *   1.53077371  *   0.85284962  *
     4       C(HETATM    4  C04 UNK     1)    0.48513077  *   2.16695052  *   1.81245658  *
     5       C(HETATM    5  C05 UNK     1)   -0.18924654  *   3.41967604  *   1.24444750  *
     6       H(HETATM    6  H01 UNK     1)    0.00172936  *  -1.17089159  *  -0.82409121  *
     7       H(HETATM    7  H02 UNK     1)    1.25262560  *  -1.23868951  *   0.48084995  *
     8       H(HETATM    8  H03 UNK     1)   -0.39642791  *  -0.59019518  *   0.84249646  *
     9       H(HETATM    9  H04 UNK     1)   -0.82805582  *   3.88704985  *   2.02621832  *
    10       H(HETATM   10  H07 UNK     1)    0.00146606  *   1.33482200  *  -0.71113712  *
    11       H(HETATM   11  H08 UNK     1)    1.62886450  *   0.66710102  *  -1.13238519  *
    12       H(HETATM   12  H09 UNK     1)    2.15906404  *   2.33457176  *   0.43609375  *
    13       H(HETATM   13  H10 UNK     1)    2.14799493  *   0.82974208  *   1.43852367  *
    14       H(HETATM   14  H11 UNK     1)    1.01635501  *   2.44617655  *   2.75505353  *
    15       H(HETATM   15  H12 UNK     1)   -0.29909969  *   1.41433987  *   2.06368880  *
    16       H(HETATM   16  H14 UNK     1)   -0.82752309  *   3.15753807  *   0.37223713  *
    17       H(HETATM   17  H15 UNK     1)    0.57551229  *   4.15692756  *   0.91587701  *

                             CARTESIAN COORDINATES

   1    C        0.403227058    -0.648171818     0.072002874
   2    C        0.870967133     0.757942667    -0.316664946
   3    C        1.506018286     1.530773711     0.852849623
   4    C        0.485130767     2.166950522     1.812456584
   5    C       -0.189246536     3.419676040     1.244447503
   6    H        0.001729359    -1.170891586    -0.824091209
   7    H        1.252625603    -1.238689508     0.480849950
   8    H       -0.396427907    -0.590195179     0.842496458
   9    H       -0.828055815     3.887049846     2.026218318
  10    H        0.001466059     1.334821999    -0.711137120
  11    H        1.628864498     0.667101025    -1.132385188
  12    H        2.159064038     2.334571758     0.436093749
  13    H        2.147994934     0.829742081     1.438523670
  14    H        1.016355009     2.446176546     2.755053533
  15    H       -0.299099689     1.414339870     2.063688800
  16    H       -0.827523091     3.157538070     0.372237134
  17    H        0.575512292     4.156927555     0.915877010


           Empirical Formula: C5 H12  =    17 atoms



      MOLECULAR POINT GROUP   :   C1  


                  EIGENVALUES  
 -28.41345 -26.11969 -23.39727 -21.26445 -19.00086 -15.83801 -15.48868 -14.28478
 -13.86195 -13.70916 -12.49685 -12.28219 -12.07986 -11.30440 -11.10044 -11.04991
   4.36813   4.47402   4.56309   4.76189   5.68694   5.81642   5.97031   5.97640
   6.09753   6.22334   6.27097   6.54618   6.57102   6.62818   6.88535   6.90921


              NET ATOMIC CHARGES AND DIPOLE CONTRIBUTIONS

  ATOM NO.                 TYPE                        CHARGE      No. of ELECS.   s-Pop       p-Pop       
    1          C(HETATM    1  C01 UNK     1)          -0.460629        4.4606     1.09133     3.36929
    2          C(HETATM    2  C02 UNK     1)          -0.221994        4.2220     1.08609     3.13590
    3          C(HETATM    3  C03 UNK     1)          -0.269440        4.2694     1.09361     3.17583
    4          C(HETATM    4  C04 UNK     1)          -0.222213        4.2222     1.08612     3.13609
    5          C(HETATM    5  C05 UNK     1)          -0.459926        4.4599     1.09106     3.36886
    6          H(HETATM    6  H01 UNK     1)           0.142581        0.8574     0.85742
    7          H(HETATM    7  H02 UNK     1)           0.145470        0.8545     0.85453
    8          H(HETATM    8  H03 UNK     1)           0.147550        0.8525     0.85245
    9          H(HETATM    9  H04 UNK     1)           0.142446        0.8576     0.85755
   10          H(HETATM   10  H07 UNK     1)           0.130062        0.8699     0.86994
   11          H(HETATM   11  H08 UNK     1)           0.121727        0.8783     0.87827
   12          H(HETATM   12  H09 UNK     1)           0.129906        0.8701     0.87009
   13          H(HETATM   13  H10 UNK     1)           0.130435        0.8696     0.86956
   14          H(HETATM   14  H11 UNK     1)           0.121793        0.8782     0.87821
   15          H(HETATM   15  H12 UNK     1)           0.129230        0.8708     0.87077
   16          H(HETATM   16  H14 UNK     1)           0.147029        0.8530     0.85297
   17          H(HETATM   17  H15 UNK     1)           0.145974        0.8540     0.85403

          NET CHARGE ON RESIDUES

      Residue         Charge  Anion or
                              Cation?
      UNK     1       +0.000
 


 DIPOLE           X         Y         Z       TOTAL
 POINT-CHG.     0.034     0.005     0.011     0.036
 HYBRID        -0.039    -0.007    -0.006     0.040
 SUM           -0.006    -0.002     0.005     0.008


          ATOMIC ORBITAL ELECTRON POPULATIONS

                   Atom                  s        px        py        pz   
   C(HETATM    1  C01 UNK     1)   1.09133   1.15322   1.06173   1.15434
   C(HETATM    2  C02 UNK     1)   1.08609   1.10430   0.98978   1.04183
   C(HETATM    3  C03 UNK     1)   1.09361   1.05448   1.08508   1.03627
   C(HETATM    4  C04 UNK     1)   1.08612   1.06114   1.02264   1.05231
   C(HETATM    5  C05 UNK     1)   1.09106   1.13892   1.08260   1.14734
   H(HETATM    6  H01 UNK     1)   0.85742
   H(HETATM    7  H02 UNK     1)   0.85453
   H(HETATM    8  H03 UNK     1)   0.85245
   H(HETATM    9  H04 UNK     1)   0.85755
   H(HETATM   10  H07 UNK     1)   0.86994
   H(HETATM   11  H08 UNK     1)   0.87827
   H(HETATM   12  H09 UNK     1)   0.87009
   H(HETATM   13  H10 UNK     1)   0.86956
   H(HETATM   14  H11 UNK     1)   0.87821
   H(HETATM   15  H12 UNK     1)   0.87077
   H(HETATM   16  H14 UNK     1)   0.85297
   H(HETATM   17  H15 UNK     1)   0.85403

 **********************
 *                    *
 * JOB ENDED NORMALLY *
 *                    *
 **********************



 TOTAL JOB TIME:             0.24 SECONDS

 == MOPAC DONE ==
