 *******************************************************************************
 ** Site#: 9752         For non-commercial use only    Version 18.184M 64BITS **
 *******************************************************************************
 ** Cite this program as: MOPAC2016, Version: 18.184M, James J. P. Stewart,   **
 ** Stewart Computational Chemistry, web: HTTP://OpenMOPAC.net. Days left: 284**
 *******************************************************************************
 **                                                                           **
 **                                MOPAC2016                                  **
 **                                                                           **
 *******************************************************************************

                              PM6-D3H4 CALCULATION RESULTS

 *******************************************************************************
 *  CALCULATION DONE:                                Sat Sep 22 10:35:18 2018  *
 *  PM6-D3H4   - CORRECT DISPERSION AND HYDROGEN BOND TERMS USING THE D3H4 METHOD
 *  START_RES  - STARTING RESIDUE NUMBERS DEFINED
 *  Keyword:   START_RES=(1) 
 *
 *
 *
 *                 CHARGE ON SYSTEM = 0
 *
 *
 *
 *  T=         - A TIME OF 172800.0 SECONDS REQUESTED
 *  DUMP=N     - RESTART FILE WRITTEN EVERY  7200.000 SECONDS
 *******************************************************************************
 START_RES=(1) PM6-D3H4 charge=0
 Generated by weighted sterimol script

   ATOM                 CHEMICAL                   X               Y               Z
  NUMBER                 SYMBOL               (ANGSTROMS)     (ANGSTROMS)     (ANGSTROMS)
 
     1       C(HETATM    1  C01 UNK     1)    0.00000000  *   0.00000000  *   0.00000000  *
     2       C(HETATM    2  C02 UNK     1)    1.17100000  *   0.97500000  *  -0.22000000  *
     3       C(HETATM    3  C03 UNK     1)    1.75200000  *   1.39600000  *   1.14300000  *
     4       C(HETATM    4  C04 UNK     1)    2.52100000  *   0.21300000  *   1.76000000  *
     5       C(HETATM    5  C05 UNK     1)    2.32700000  *   0.21400000  *   3.28700000  *
     6       H(HETATM    6  H01 UNK     1)   -0.78500000  *   0.24400000  *  -0.65300000  *
     7       H(HETATM    7  H02 UNK     1)    0.32200000  *  -0.98100000  *  -0.19000000  *
     8       H(HETATM    8  H03 UNK     1)   -0.33500000  *   0.07300000  *   0.99300000  *
     9       H(HETATM    9  H04 UNK     1)    2.85300000  *  -0.59300000  *   3.70700000  *
    10       H(HETATM   10  H07 UNK     1)    0.82800000  *   1.82500000  *  -0.73100000  *
    11       H(HETATM   11  H08 UNK     1)    1.91700000  *   0.50300000  *  -0.78700000  *
    12       H(HETATM   12  H09 UNK     1)    0.97000000  *   1.67700000  *   1.78600000  *
    13       H(HETATM   13  H10 UNK     1)    2.40500000  *   2.20700000  *   1.01100000  *
    14       H(HETATM   14  H11 UNK     1)    3.54300000  *   0.30400000  *   1.53600000  *
    15       H(HETATM   15  H12 UNK     1)    2.15600000  *  -0.68700000  *   1.36200000  *
    16       H(HETATM   16  H14 UNK     1)    1.30500000  *   0.11800000  *   3.51100000  *
    17       H(HETATM   17  H15 UNK     1)    2.69100000  *   1.11400000  *   3.68600000  *
 

 General Reference for PM6:
 "Optimization of Parameters for Semiempirical Methods V: Modification of NDDO Approximations
 and Application to 70 Elements", J. J. P. Stewart, J. Mol. Mod., 13, 1173-1213 (2007)
 URL: http://www.springerlink.com/content/ar33482301010477/fulltext.pdf

           Empirical Formula: C5 H12  =    17 atoms



      MOLECULAR POINT GROUP   :   C1  


      RHF CALCULATION, NO. OF DOUBLY OCCUPIED LEVELS = 16


          Geometry optimization using EF

          DIAGONAL MATRIX USED AS START HESSIAN

 CYCLE:     1 TIME:   0.008 TIME LEFT:  2.00D  GRAD.:   174.544 HEAT:  4.800730
 CYCLE:     2 TIME:   0.004 TIME LEFT:  2.00D  GRAD.:   134.403 HEAT: -5.725488
 CYCLE:     3 TIME:   0.004 TIME LEFT:  2.00D  GRAD.:    49.174 HEAT: -11.05144
 CYCLE:     4 TIME:   0.004 TIME LEFT:  2.00D  GRAD.:    43.650 HEAT: -11.41419
 CYCLE:     5 TIME:   0.004 TIME LEFT:  2.00D  GRAD.:    35.437 HEAT: -11.82998
 CYCLE:     6 TIME:   0.008 TIME LEFT:  2.00D  GRAD.:    21.608 HEAT: -12.19606
 CYCLE:     7 TIME:   0.004 TIME LEFT:  2.00D  GRAD.:    18.432 HEAT: -12.29058
 CYCLE:     8 TIME:   0.004 TIME LEFT:  2.00D  GRAD.:    17.696 HEAT: -12.42060
 CYCLE:     9 TIME:   0.000 TIME LEFT:  2.00D  GRAD.:    16.727 HEAT: -12.51441
 CYCLE:    10 TIME:   0.004 TIME LEFT:  2.00D  GRAD.:    12.596 HEAT: -12.62302
 CYCLE:    11 TIME:   0.000 TIME LEFT:  2.00D  GRAD.:    15.083 HEAT: -12.66971
 CYCLE:    12 TIME:   0.004 TIME LEFT:  2.00D  GRAD.:     5.866 HEAT: -12.79911
 CYCLE:    13 TIME:   0.004 TIME LEFT:  2.00D  GRAD.:     6.155 HEAT: -12.86693
 CYCLE:    14 TIME:   0.004 TIME LEFT:  2.00D  GRAD.:     6.399 HEAT: -12.93614
 CYCLE:    15 TIME:   0.008 TIME LEFT:  2.00D  GRAD.:     4.147 HEAT: -12.99390
 CYCLE:    16 TIME:   0.004 TIME LEFT:  2.00D  GRAD.:     4.022 HEAT: -13.02655
 CYCLE:    17 TIME:   0.004 TIME LEFT:  2.00D  GRAD.:     4.846 HEAT: -13.04274
 CYCLE:    18 TIME:   0.000 TIME LEFT:  2.00D  GRAD.:     2.860 HEAT: -13.05862
 CYCLE:    19 TIME:   0.004 TIME LEFT:  2.00D  GRAD.:     2.511 HEAT: -13.07383
 CYCLE:    20 TIME:   0.008 TIME LEFT:  2.00D  GRAD.:     2.622 HEAT: -13.08635
 CYCLE:    21 TIME:   0.004 TIME LEFT:  2.00D  GRAD.:     2.497 HEAT: -13.10503
 CYCLE:    22 TIME:   0.012 TIME LEFT:  2.00D  GRAD.:     2.991 HEAT: -13.12119
 CYCLE:    23 TIME:   0.004 TIME LEFT:  2.00D  GRAD.:     3.611 HEAT: -13.14184
 CYCLE:    24 TIME:   0.000 TIME LEFT:  2.00D  GRAD.:     3.786 HEAT: -13.17063
 CYCLE:    25 TIME:   0.004 TIME LEFT:  2.00D  GRAD.:     3.972 HEAT: -13.21228
 CYCLE:    26 TIME:   0.004 TIME LEFT:  2.00D  GRAD.:     4.225 HEAT: -13.23907
 CYCLE:    27 TIME:   0.004 TIME LEFT:  2.00D  GRAD.:     3.907 HEAT: -13.26894
 CYCLE:    28 TIME:   0.004 TIME LEFT:  2.00D  GRAD.:     4.369 HEAT: -13.31721
 CYCLE:    29 TIME:   0.004 TIME LEFT:  2.00D  GRAD.:     5.664 HEAT: -13.37220
 CYCLE:    30 TIME:   0.004 TIME LEFT:  2.00D  GRAD.:     5.952 HEAT: -13.44155
 CYCLE:    31 TIME:   0.000 TIME LEFT:  2.00D  GRAD.:     6.631 HEAT: -13.51450
 CYCLE:    32 TIME:   0.008 TIME LEFT:  2.00D  GRAD.:     8.250 HEAT: -13.60148
 CYCLE:    33 TIME:   0.000 TIME LEFT:  2.00D  GRAD.:     5.623 HEAT: -13.65537
 CYCLE:    34 TIME:   0.004 TIME LEFT:  2.00D  GRAD.:     9.650 HEAT: -13.73214
 CYCLE:    35 TIME:   0.004 TIME LEFT:  2.00D  GRAD.:     5.705 HEAT: -13.79981
 CYCLE:    36 TIME:   0.004 TIME LEFT:  2.00D  GRAD.:     4.393 HEAT: -13.88142
 CYCLE:    37 TIME:   0.020 TIME LEFT:  2.00D  GRAD.:     8.785 HEAT: -13.93279
 CYCLE:    38 TIME:   0.008 TIME LEFT:  2.00D  GRAD.:     3.280 HEAT: -13.96699
 CYCLE:    39 TIME:   0.004 TIME LEFT:  2.00D  GRAD.:     2.451 HEAT: -13.99231
 CYCLE:    40 TIME:   0.004 TIME LEFT:  2.00D  GRAD.:     4.546 HEAT: -14.03993
 CYCLE:    41 TIME:   0.004 TIME LEFT:  2.00D  GRAD.:     3.714 HEAT: -14.06136
 CYCLE:    42 TIME:   0.004 TIME LEFT:  2.00D  GRAD.:     3.273 HEAT: -14.10603
 CYCLE:    43 TIME:   0.012 TIME LEFT:  2.00D  GRAD.:     4.575 HEAT: -14.14827
 CYCLE:    44 TIME:   0.004 TIME LEFT:  2.00D  GRAD.:     5.125 HEAT: -14.18642
 CYCLE:    45 TIME:   0.004 TIME LEFT:  2.00D  GRAD.:     5.215 HEAT: -14.23607
 CYCLE:    46 TIME:   0.004 TIME LEFT:  2.00D  GRAD.:     6.986 HEAT: -14.30831
 CYCLE:    47 TIME:   0.004 TIME LEFT:  2.00D  GRAD.:     6.659 HEAT: -14.37614
 CYCLE:    48 TIME:   0.004 TIME LEFT:  2.00D  GRAD.:     5.504 HEAT: -14.43065
 CYCLE:    49 TIME:   0.004 TIME LEFT:  2.00D  GRAD.:    10.311 HEAT: -14.46948
 CYCLE:    50 TIME:   0.004 TIME LEFT:  2.00D  GRAD.:     4.115 HEAT: -14.54644
 CYCLE:    51 TIME:   0.008 TIME LEFT:  2.00D  GRAD.:     3.181 HEAT: -14.57744
 CYCLE:    52 TIME:   0.004 TIME LEFT:  2.00D  GRAD.:     3.160 HEAT: -14.63207
 CYCLE:    53 TIME:   0.004 TIME LEFT:  2.00D  GRAD.:     3.050 HEAT: -14.65777
 CYCLE:    54 TIME:   0.004 TIME LEFT:  2.00D  GRAD.:     3.144 HEAT: -14.67868
 CYCLE:    55 TIME:   0.004 TIME LEFT:  2.00D  GRAD.:     3.435 HEAT: -14.68773
 CYCLE:    56 TIME:   0.008 TIME LEFT:  2.00D  GRAD.:     2.594 HEAT: -14.69716
 CYCLE:    57 TIME:   0.008 TIME LEFT:  2.00D  GRAD.:     1.927 HEAT: -14.70703
 CYCLE:    58 TIME:   0.004 TIME LEFT:  2.00D  GRAD.:     1.602 HEAT: -14.71425
 CYCLE:    59 TIME:   0.004 TIME LEFT:  2.00D  GRAD.:     2.072 HEAT: -14.72167
 CYCLE:    60 TIME:   0.000 TIME LEFT:  2.00D  GRAD.:     2.399 HEAT: -14.72740
 CYCLE:    61 TIME:   0.004 TIME LEFT:  2.00D  GRAD.:     3.454 HEAT: -14.74102
 CYCLE:    62 TIME:   0.004 TIME LEFT:  2.00D  GRAD.:     3.283 HEAT: -14.75302
 CYCLE:    63 TIME:   0.004 TIME LEFT:  2.00D  GRAD.:     2.829 HEAT: -14.77634
 CYCLE:    64 TIME:   0.000 TIME LEFT:  2.00D  GRAD.:     2.109 HEAT: -14.78591
 CYCLE:    65 TIME:   0.004 TIME LEFT:  2.00D  GRAD.:     1.497 HEAT: -14.79313
 CYCLE:    66 TIME:   0.000 TIME LEFT:  2.00D  GRAD.:     0.982 HEAT: -14.79948

     GRADIENT =  0.98211  IS LESS THAN CUTOFF =  1.00000



 -------------------------------------------------------------------------------
 START_RES=(1) PM6-D3H4 charge=0
 Generated by weighted sterimol script



     GEOMETRY OPTIMISED USING EIGENVECTOR FOLLOWING (EF).     
     SCF FIELD WAS ACHIEVED                                   


                              PM6-D3H4 CALCULATION
                                                       MOPAC2016 (Version: 18.184M)
                                                       Sat Sep 22 10:35:18 2018
                                                       No. of days remaining = 284




          FINAL HEAT OF FORMATION =        -14.79948 KCAL/MOL =     -61.92103 KJ/MOL


          TOTAL ENERGY            =       -776.40162 EV
          ELECTRONIC ENERGY       =      -3416.42421 EV  POINT GROUP:     C1  
          CORE-CORE REPULSION     =       2640.02259 EV
          COSMO AREA              =        134.77 SQUARE ANGSTROMS
          COSMO VOLUME            =        123.16 CUBIC ANGSTROMS

          GRADIENT NORM           =          0.98211 = 0.23820 PER ATOM
          IONIZATION POTENTIAL    =         11.038632 EV
          HOMO LUMO ENERGIES (EV) =        -11.039  4.190
          NO. OF FILLED LEVELS    =         16
          MOLECULAR WEIGHT        =         72.1498

          MOLECULAR DIMENSIONS (Angstroms)

            Atom       Atom       Distance
            H     9    H     6     6.31974
            H    13    H     7     3.36023
            H    14    H    16     2.81272


          SCF CALCULATIONS        =         70
 
          WALL-CLOCK TIME         =          0.305 SECONDS
          COMPUTATION TIME        =          0.473 SECONDS




   ATOM                 CHEMICAL                   X               Y               Z
  NUMBER                 SYMBOL               (ANGSTROMS)     (ANGSTROMS)     (ANGSTROMS)
 
     1       C(HETATM    1  C01 UNK     1)   -0.04715261  *   0.06926450  *  -0.34241151  *
     2       C(HETATM    2  C02 UNK     1)    1.14614123  *   1.01444858  *  -0.17284951  *
     3       C(HETATM    3  C03 UNK     1)    1.53030045  *   1.24381342  *   1.29952148  *
     4       C(HETATM    4  C04 UNK     1)    2.36272430  *   0.09055788  *   1.88515464  *
     5       C(HETATM    5  C05 UNK     1)    2.71199388  *   0.33525377  *   3.35642859  *
     6       H(HETATM    6  H01 UNK     1)   -0.27461565  *  -0.06173566  *  -1.42328062  *
     7       H(HETATM    7  H02 UNK     1)    0.18416895  *  -0.92487006  *   0.09810402  *
     8       H(HETATM    8  H03 UNK     1)   -0.94456706  *   0.48392446  *   0.16742188  *
     9       H(HETATM    9  H04 UNK     1)    3.35367779  *  -0.49167395  *   3.73324256  *
    10       H(HETATM   10  H07 UNK     1)    0.88960560  *   2.00119932  *  -0.62948627  *
    11       H(HETATM   11  H08 UNK     1)    2.02257242  *   0.59628252  *  -0.72363708  *
    12       H(HETATM   12  H09 UNK     1)    0.60401862  *   1.37389813  *   1.90724416  *
    13       H(HETATM   13  H10 UNK     1)    2.12651368  *   2.18485766  *   1.37120106  *
    14       H(HETATM   14  H11 UNK     1)    3.30606790  *  -0.01514464  *   1.29798970  *
    15       H(HETATM   15  H12 UNK     1)    1.78886322  *  -0.86259186  *   1.80087807  *
    16       H(HETATM   16  H14 UNK     1)    1.78423280  *   0.37760799  *   3.96957904  *
    17       H(HETATM   17  H15 UNK     1)    3.26072607  *   1.29642239  *   3.46896659  *

                             CARTESIAN COORDINATES

   1    C       -0.047152614     0.069264498    -0.342411507
   2    C        1.146141230     1.014448583    -0.172849508
   3    C        1.530300446     1.243813425     1.299521476
   4    C        2.362724300     0.090557877     1.885154638
   5    C        2.711993884     0.335253766     3.356428588
   6    H       -0.274615652    -0.061735665    -1.423280616
   7    H        0.184168954    -0.924870060     0.098104021
   8    H       -0.944567055     0.483924460     0.167421879
   9    H        3.353677792    -0.491673948     3.733242557
  10    H        0.889605599     2.001199316    -0.629486266
  11    H        2.022572419     0.596282518    -0.723637078
  12    H        0.604018618     1.373898125     1.907244165
  13    H        2.126513680     2.184857660     1.371201060
  14    H        3.306067904    -0.015144636     1.297989699
  15    H        1.788863216    -0.862591859     1.800878067
  16    H        1.784232804     0.377607987     3.969579044
  17    H        3.260726070     1.296422390     3.468966587


           Empirical Formula: C5 H12  =    17 atoms



      MOLECULAR POINT GROUP   :   C1  


                  EIGENVALUES  
 -28.39814 -26.28494 -23.35302 -20.80523 -19.50880 -15.86936 -15.20277 -14.70293
 -13.91033 -13.30432 -12.82073 -12.22164 -11.94996 -11.39865 -11.17938 -11.03863
   4.18992   4.49850   4.59302   4.88510   5.64083   5.73121   5.95918   5.97498
   6.04739   6.21576   6.35720   6.50336   6.61452   6.63382   6.81716   6.88617


              NET ATOMIC CHARGES AND DIPOLE CONTRIBUTIONS

  ATOM NO.                 TYPE                        CHARGE      No. of ELECS.   s-Pop       p-Pop       
    1          C(HETATM    1  C01 UNK     1)          -0.458833        4.4588     1.09095     3.36789
    2          C(HETATM    2  C02 UNK     1)          -0.226947        4.2269     1.08652     3.14043
    3          C(HETATM    3  C03 UNK     1)          -0.270364        4.2704     1.09340     3.17696
    4          C(HETATM    4  C04 UNK     1)          -0.221918        4.2219     1.08615     3.13577
    5          C(HETATM    5  C05 UNK     1)          -0.465067        4.4651     1.09163     3.37344
    6          H(HETATM    6  H01 UNK     1)           0.142598        0.8574     0.85740
    7          H(HETATM    7  H02 UNK     1)           0.147752        0.8522     0.85225
    8          H(HETATM    8  H03 UNK     1)           0.146169        0.8538     0.85383
    9          H(HETATM    9  H04 UNK     1)           0.144572        0.8554     0.85543
   10          H(HETATM   10  H07 UNK     1)           0.123856        0.8761     0.87614
   11          H(HETATM   11  H08 UNK     1)           0.127689        0.8723     0.87231
   12          H(HETATM   12  H09 UNK     1)           0.135112        0.8649     0.86489
   13          H(HETATM   13  H10 UNK     1)           0.128485        0.8715     0.87152
   14          H(HETATM   14  H11 UNK     1)           0.124997        0.8750     0.87500
   15          H(HETATM   15  H12 UNK     1)           0.127908        0.8721     0.87209
   16          H(HETATM   16  H14 UNK     1)           0.147081        0.8529     0.85292
   17          H(HETATM   17  H15 UNK     1)           0.146910        0.8531     0.85309

          NET CHARGE ON RESIDUES

      Residue         Charge  Anion or
                              Cation?
      UNK     1       +0.000
 


 DIPOLE           X         Y         Z       TOTAL
 POINT-CHG.     0.018     0.019    -0.043     0.051
 HYBRID        -0.034    -0.020     0.064     0.075
 SUM           -0.016    -0.000     0.021     0.026


          ATOMIC ORBITAL ELECTRON POPULATIONS

                   Atom                  s        px        py        pz   
   C(HETATM    1  C01 UNK     1)   1.09095   1.09064   1.12194   1.15531
   C(HETATM    2  C02 UNK     1)   1.08652   1.04477   1.07763   1.01803
   C(HETATM    3  C03 UNK     1)   1.09340   1.10019   1.06390   1.01288
   C(HETATM    4  C04 UNK     1)   1.08615   1.09000   1.06073   0.98504
   C(HETATM    5  C05 UNK     1)   1.09163   1.15676   1.15992   1.05676
   H(HETATM    6  H01 UNK     1)   0.85740
   H(HETATM    7  H02 UNK     1)   0.85225
   H(HETATM    8  H03 UNK     1)   0.85383
   H(HETATM    9  H04 UNK     1)   0.85543
   H(HETATM   10  H07 UNK     1)   0.87614
   H(HETATM   11  H08 UNK     1)   0.87231
   H(HETATM   12  H09 UNK     1)   0.86489
   H(HETATM   13  H10 UNK     1)   0.87152
   H(HETATM   14  H11 UNK     1)   0.87500
   H(HETATM   15  H12 UNK     1)   0.87209
   H(HETATM   16  H14 UNK     1)   0.85292
   H(HETATM   17  H15 UNK     1)   0.85309

 **********************
 *                    *
 * JOB ENDED NORMALLY *
 *                    *
 **********************



 TOTAL JOB TIME:             0.30 SECONDS

 == MOPAC DONE ==
