 *******************************************************************************
 ** Site#: 9752         For non-commercial use only    Version 18.184M 64BITS **
 *******************************************************************************
 ** Cite this program as: MOPAC2016, Version: 18.184M, James J. P. Stewart,   **
 ** Stewart Computational Chemistry, web: HTTP://OpenMOPAC.net. Days left: 285**
 *******************************************************************************
 **                                                                           **
 **                                MOPAC2016                                  **
 **                                                                           **
 *******************************************************************************

                              PM6-D3H4 CALCULATION RESULTS

 *******************************************************************************
 *  CALCULATION DONE:                                Fri Sep 21 22:30:09 2018  *
 *  PM6-D3H4   - CORRECT DISPERSION AND HYDROGEN BOND TERMS USING THE D3H4 METHOD
 *  START_RES  - STARTING RESIDUE NUMBERS DEFINED
 *  Keyword:   START_RES=(1) 
 *
 *
 *
 *                 CHARGE ON SYSTEM = 0
 *
 *
 *
 *  T=         - A TIME OF 172800.0 SECONDS REQUESTED
 *  DUMP=N     - RESTART FILE WRITTEN EVERY  7200.000 SECONDS
 *******************************************************************************
 START_RES=(1) PM6-D3H4 charge=0
 Generated by weighted sterimol script

   ATOM                 CHEMICAL                   X               Y               Z
  NUMBER                 SYMBOL               (ANGSTROMS)     (ANGSTROMS)     (ANGSTROMS)
 
     1       C(HETATM    1  C01 UNK     1)    0.00000000  *   0.00000000  *   0.00000000  *
     2       C(HETATM    2  C02 UNK     1)    1.17100000  *   0.97500000  *  -0.22000000  *
     3       C(HETATM    3  C03 UNK     1)    1.75200000  *   1.39600000  *   1.14300000  *
     4       C(HETATM    4  C04 UNK     1)    0.76500000  *   2.34300000  *   1.85000000  *
     5       C(HETATM    5  C05 UNK     1)    0.79200000  *   2.07500000  *   3.36600000  *
     6       H(HETATM    6  H01 UNK     1)   -0.78500000  *   0.24400000  *  -0.65300000  *
     7       H(HETATM    7  H02 UNK     1)    0.32200000  *  -0.98100000  *  -0.19000000  *
     8       H(HETATM    8  H03 UNK     1)   -0.33500000  *   0.07300000  *   0.99300000  *
     9       H(HETATM    9  H04 UNK     1)    0.11800000  *   2.72000000  *   3.84800000  *
    10       H(HETATM   10  H07 UNK     1)    0.82800000  *   1.82500000  *  -0.73100000  *
    11       H(HETATM   11  H08 UNK     1)    1.91700000  *   0.50300000  *  -0.78700000  *
    12       H(HETATM   12  H09 UNK     1)    2.66700000  *   1.89100000  *   0.99600000  *
    13       H(HETATM   13  H10 UNK     1)    1.90600000  *   0.54400000  *   1.73700000  *
    14       H(HETATM   14  H11 UNK     1)   -0.20400000  *   2.17800000  *   1.48300000  *
    15       H(HETATM   15  H12 UNK     1)    1.04400000  *   3.33900000  *   1.66700000  *
    16       H(HETATM   16  H14 UNK     1)    1.76100000  *   2.24300000  *   3.73500000  *
    17       H(HETATM   17  H15 UNK     1)    0.51500000  *   1.07800000  *   3.55100000  *
 

 General Reference for PM6:
 "Optimization of Parameters for Semiempirical Methods V: Modification of NDDO Approximations
 and Application to 70 Elements", J. J. P. Stewart, J. Mol. Mod., 13, 1173-1213 (2007)
 URL: http://www.springerlink.com/content/ar33482301010477/fulltext.pdf

           Empirical Formula: C5 H12  =    17 atoms



      MOLECULAR POINT GROUP   :   C1  


      RHF CALCULATION, NO. OF DOUBLY OCCUPIED LEVELS = 16


          Geometry optimization using EF

          DIAGONAL MATRIX USED AS START HESSIAN

 CYCLE:     1 TIME:   0.008 TIME LEFT:  2.00D  GRAD.:   174.387 HEAT:  4.853731
 CYCLE:     2 TIME:   0.000 TIME LEFT:  2.00D  GRAD.:   132.080 HEAT: -5.858141
 CYCLE:     3 TIME:   0.008 TIME LEFT:  2.00D  GRAD.:    50.934 HEAT: -10.87036
 CYCLE:     4 TIME:   0.008 TIME LEFT:  2.00D  GRAD.:    42.686 HEAT: -11.36870
 CYCLE:     5 TIME:   0.000 TIME LEFT:  2.00D  GRAD.:    43.385 HEAT: -11.58890
 CYCLE:     6 TIME:   0.000 TIME LEFT:  2.00D  GRAD.:    19.811 HEAT: -12.20058
 CYCLE:     7 TIME:   0.008 TIME LEFT:  2.00D  GRAD.:    10.542 HEAT: -12.36673
 CYCLE:     8 TIME:   0.000 TIME LEFT:  2.00D  GRAD.:    11.120 HEAT: -12.48564
 CYCLE:     9 TIME:   0.008 TIME LEFT:  2.00D  GRAD.:    14.168 HEAT: -12.58220
 CYCLE:    10 TIME:   0.000 TIME LEFT:  2.00D  GRAD.:     8.559 HEAT: -12.69130
 CYCLE:    11 TIME:   0.008 TIME LEFT:  2.00D  GRAD.:    13.631 HEAT: -12.71232
 CYCLE:    12 TIME:   0.000 TIME LEFT:  2.00D  GRAD.:     8.345 HEAT: -12.80028
 CYCLE:    13 TIME:   0.008 TIME LEFT:  2.00D  GRAD.:     8.124 HEAT: -12.84725
 CYCLE:    14 TIME:   0.000 TIME LEFT:  2.00D  GRAD.:     4.829 HEAT: -12.89849
 CYCLE:    15 TIME:   0.000 TIME LEFT:  2.00D  GRAD.:     4.405 HEAT: -12.93137
 CYCLE:    16 TIME:   0.008 TIME LEFT:  2.00D  GRAD.:     2.893 HEAT: -12.94729
 CYCLE:    17 TIME:   0.000 TIME LEFT:  2.00D  GRAD.:     2.885 HEAT: -12.96131
 CYCLE:    18 TIME:   0.000 TIME LEFT:  2.00D  GRAD.:     3.406 HEAT: -12.97264
 CYCLE:    19 TIME:   0.008 TIME LEFT:  2.00D  GRAD.:     2.455 HEAT: -12.98257
 CYCLE:    20 TIME:   0.000 TIME LEFT:  2.00D  GRAD.:     2.511 HEAT: -12.99389
 CYCLE:    21 TIME:   0.008 TIME LEFT:  2.00D  GRAD.:     3.655 HEAT: -13.01271
 CYCLE:    22 TIME:   0.000 TIME LEFT:  2.00D  GRAD.:     4.851 HEAT: -13.04299
 CYCLE:    23 TIME:   0.000 TIME LEFT:  2.00D  GRAD.:     5.917 HEAT: -13.10025
 CYCLE:    24 TIME:   0.008 TIME LEFT:  2.00D  GRAD.:     8.202 HEAT: -13.22167
 CYCLE:    25 TIME:   0.000 TIME LEFT:  2.00D  GRAD.:    11.087 HEAT: -13.36665
 CYCLE:    26 TIME:   0.008 TIME LEFT:  2.00D  GRAD.:     9.801 HEAT: -13.54652
 CYCLE:    27 TIME:   0.000 TIME LEFT:  2.00D  GRAD.:    13.355 HEAT: -13.71448
 CYCLE:    28 TIME:   0.008 TIME LEFT:  2.00D  GRAD.:     9.101 HEAT: -13.85238
 CYCLE:    29 TIME:   0.000 TIME LEFT:  2.00D  GRAD.:     5.442 HEAT: -13.96476
 CYCLE:    30 TIME:   0.008 TIME LEFT:  2.00D  GRAD.:     4.961 HEAT: -14.05045
 CYCLE:    31 TIME:   0.000 TIME LEFT:  2.00D  GRAD.:     6.890 HEAT: -14.09795
 CYCLE:    32 TIME:   0.008 TIME LEFT:  2.00D  GRAD.:     4.585 HEAT: -14.14302
 CYCLE:    33 TIME:   0.000 TIME LEFT:  2.00D  GRAD.:     3.924 HEAT: -14.19095
 CYCLE:    34 TIME:   0.000 TIME LEFT:  2.00D  GRAD.:     3.139 HEAT: -14.21742
 CYCLE:    35 TIME:   0.008 TIME LEFT:  2.00D  GRAD.:     3.095 HEAT: -14.23815
 CYCLE:    36 TIME:   0.000 TIME LEFT:  2.00D  GRAD.:     2.638 HEAT: -14.26039
 CYCLE:    37 TIME:   0.008 TIME LEFT:  2.00D  GRAD.:     3.298 HEAT: -14.27485
 CYCLE:    38 TIME:   0.000 TIME LEFT:  2.00D  GRAD.:     2.493 HEAT: -14.28595
 CYCLE:    39 TIME:   0.000 TIME LEFT:  2.00D  GRAD.:     1.911 HEAT: -14.29344
 CYCLE:    40 TIME:   0.008 TIME LEFT:  2.00D  GRAD.:     1.609 HEAT: -14.30479
 CYCLE:    41 TIME:   0.000 TIME LEFT:  2.00D  GRAD.:     1.590 HEAT: -14.30862
 CYCLE:    42 TIME:   0.000 TIME LEFT:  2.00D  GRAD.:     1.977 HEAT: -14.31815
 CYCLE:    43 TIME:   0.008 TIME LEFT:  2.00D  GRAD.:     2.101 HEAT: -14.32666
 CYCLE:    44 TIME:   0.000 TIME LEFT:  2.00D  GRAD.:     2.584 HEAT: -14.33884
 CYCLE:    45 TIME:   0.000 TIME LEFT:  2.00D  GRAD.:     3.595 HEAT: -14.35792
 CYCLE:    46 TIME:   0.008 TIME LEFT:  2.00D  GRAD.:     4.420 HEAT: -14.38445
 CYCLE:    47 TIME:   0.000 TIME LEFT:  2.00D  GRAD.:     6.104 HEAT: -14.43080
 CYCLE:    48 TIME:   0.000 TIME LEFT:  2.00D  GRAD.:     3.847 HEAT: -14.46263
 CYCLE:    49 TIME:   0.008 TIME LEFT:  2.00D  GRAD.:     4.082 HEAT: -14.49577
 CYCLE:    50 TIME:   0.000 TIME LEFT:  2.00D  GRAD.:     2.301 HEAT: -14.50868
 CYCLE:    51 TIME:   0.000 TIME LEFT:  2.00D  GRAD.:     2.061 HEAT: -14.52315
 CYCLE:    52 TIME:   0.008 TIME LEFT:  2.00D  GRAD.:     2.897 HEAT: -14.53836
 CYCLE:    53 TIME:   0.000 TIME LEFT:  2.00D  GRAD.:     3.627 HEAT: -14.56168
 CYCLE:    54 TIME:   0.008 TIME LEFT:  2.00D  GRAD.:     3.630 HEAT: -14.59038
 CYCLE:    55 TIME:   0.000 TIME LEFT:  2.00D  GRAD.:     3.188 HEAT: -14.62644
 CYCLE:    56 TIME:   0.000 TIME LEFT:  2.00D  GRAD.:     3.849 HEAT: -14.66001
 CYCLE:    57 TIME:   0.008 TIME LEFT:  2.00D  GRAD.:     5.169 HEAT: -14.67662
 CYCLE:    58 TIME:   0.000 TIME LEFT:  2.00D  GRAD.:     2.609 HEAT: -14.70257
 CYCLE:    59 TIME:   0.008 TIME LEFT:  2.00D  GRAD.:     1.720 HEAT: -14.71120
 CYCLE:    60 TIME:   0.000 TIME LEFT:  2.00D  GRAD.:     1.635 HEAT: -14.71540
 CYCLE:    61 TIME:   0.000 TIME LEFT:  2.00D  GRAD.:     1.073 HEAT: -14.71780
 CYCLE:    62 TIME:   0.008 TIME LEFT:  2.00D  GRAD.:     0.772 HEAT: -14.72003

     GRADIENT =  0.77177  IS LESS THAN CUTOFF =  1.00000



 -------------------------------------------------------------------------------
 START_RES=(1) PM6-D3H4 charge=0
 Generated by weighted sterimol script



     GEOMETRY OPTIMISED USING EIGENVECTOR FOLLOWING (EF).     
     SCF FIELD WAS ACHIEVED                                   


                              PM6-D3H4 CALCULATION
                                                       MOPAC2016 (Version: 18.184M)
                                                       Fri Sep 21 22:30:09 2018
                                                       No. of days remaining = 285




          FINAL HEAT OF FORMATION =        -14.72003 KCAL/MOL =     -61.58860 KJ/MOL


          TOTAL ENERGY            =       -776.39890 EV
          ELECTRONIC ENERGY       =      -3416.73477 EV  POINT GROUP:     C1  
          CORE-CORE REPULSION     =       2640.33587 EV
          COSMO AREA              =        135.01 SQUARE ANGSTROMS
          COSMO VOLUME            =        123.41 CUBIC ANGSTROMS

          GRADIENT NORM           =          0.77177 = 0.18718 PER ATOM
          IONIZATION POTENTIAL    =         11.042398 EV
          HOMO LUMO ENERGIES (EV) =        -11.042  4.191
          NO. OF FILLED LEVELS    =         16
          MOLECULAR WEIGHT        =         72.1498

          MOLECULAR DIMENSIONS (Angstroms)

            Atom       Atom       Distance
            H     9    H     6     6.33082
            H    12    H     8     3.33900
            H    17    H    10     2.81573


          SCF CALCULATIONS        =         68
 
          WALL-CLOCK TIME         =          0.211 SECONDS
          COMPUTATION TIME        =          0.403 SECONDS




   ATOM                 CHEMICAL                   X               Y               Z
  NUMBER                 SYMBOL               (ANGSTROMS)     (ANGSTROMS)     (ANGSTROMS)
 
     1       C(HETATM    1  C01 UNK     1)    0.01990448  *  -0.02354729  *  -0.34244277  *
     2       C(HETATM    2  C02 UNK     1)    1.14578867  *   1.00584169  *  -0.20721638  *
     3       C(HETATM    3  C03 UNK     1)    1.58139629  *   1.23943174  *   1.25003984  *
     4       C(HETATM    4  C04 UNK     1)    0.62834641  *   2.17570727  *   2.01226313  *
     5       C(HETATM    5  C05 UNK     1)    1.04552608  *   2.34327147  *   3.47681696  *
     6       H(HETATM    6  H01 UNK     1)   -0.26272180  *  -0.13386385  *  -1.41274186  *
     7       H(HETATM    7  H02 UNK     1)    0.35234248  *  -1.01161765  *   0.04614309  *
     8       H(HETATM    8  H03 UNK     1)   -0.87486090  *   0.30246937  *   0.23142281  *
     9       H(HETATM    9  H04 UNK     1)    0.45136619  *   3.15687845  *   3.94826266  *
    10       H(HETATM   10  H07 UNK     1)    0.81208791  *   1.97368240  *  -0.65241230  *
    11       H(HETATM   11  H08 UNK     1)    2.03036701  *   0.64422551  *  -0.78635415  *
    12       H(HETATM   12  H09 UNK     1)    2.60143053  *   1.69336744  *   1.24751669  *
    13       H(HETATM   13  H10 UNK     1)    1.63751611  *   0.26013801  *   1.78068065  *
    14       H(HETATM   14  H11 UNK     1)   -0.40671015  *   1.76110831  *   1.97508880  *
    15       H(HETATM   15  H12 UNK     1)    0.62319053  *   3.17461422  *   1.51476837  *
    16       H(HETATM   16  H14 UNK     1)    2.12472769  *   2.60405648  *   3.54544466  *
    17       H(HETATM   17  H15 UNK     1)    0.86906856  *   1.39865992  *   4.03698596  *

                             CARTESIAN COORDINATES

   1    C        0.019904481    -0.023547293    -0.342442765
   2    C        1.145788665     1.005841694    -0.207216382
   3    C        1.581396290     1.239431738     1.250039835
   4    C        0.628346413     2.175707271     2.012263128
   5    C        1.045526078     2.343271475     3.476816956
   6    H       -0.262721797    -0.133863855    -1.412741860
   7    H        0.352342479    -1.011617648     0.046143087
   8    H       -0.874860903     0.302469366     0.231422811
   9    H        0.451366187     3.156878453     3.948262656
  10    H        0.812087914     1.973682399    -0.652412305
  11    H        2.030367007     0.644225515    -0.786354154
  12    H        2.601430532     1.693367438     1.247516693
  13    H        1.637516112     0.260138007     1.780680653
  14    H       -0.406710150     1.761108314     1.975088802
  15    H        0.623190528     3.174614219     1.514768369
  16    H        2.124727690     2.604056481     3.545444662
  17    H        0.869068557     1.398659919     4.036985960


           Empirical Formula: C5 H12  =    17 atoms



      MOLECULAR POINT GROUP   :   C1  


                  EIGENVALUES  
 -28.39902 -26.28011 -23.36231 -20.80871 -19.50119 -15.87258 -15.20554 -14.69312
 -13.90746 -13.32323 -12.81439 -12.21380 -11.96014 -11.39547 -11.16864 -11.04240
   4.19077   4.49676   4.59545   4.88570   5.64158   5.72972   5.95556   5.97449
   6.04465   6.21490   6.36296   6.50416   6.61474   6.63522   6.82088   6.88657


              NET ATOMIC CHARGES AND DIPOLE CONTRIBUTIONS

  ATOM NO.                 TYPE                        CHARGE      No. of ELECS.   s-Pop       p-Pop       
    1          C(HETATM    1  C01 UNK     1)          -0.458756        4.4588     1.09097     3.36778
    2          C(HETATM    2  C02 UNK     1)          -0.227116        4.2271     1.08655     3.14057
    3          C(HETATM    3  C03 UNK     1)          -0.270442        4.2704     1.09348     3.17697
    4          C(HETATM    4  C04 UNK     1)          -0.221753        4.2218     1.08604     3.13571
    5          C(HETATM    5  C05 UNK     1)          -0.465073        4.4651     1.09146     3.37361
    6          H(HETATM    6  H01 UNK     1)           0.142548        0.8575     0.85745
    7          H(HETATM    7  H02 UNK     1)           0.146135        0.8539     0.85387
    8          H(HETATM    8  H03 UNK     1)           0.147837        0.8522     0.85216
    9          H(HETATM    9  H04 UNK     1)           0.144533        0.8555     0.85547
   10          H(HETATM   10  H07 UNK     1)           0.127709        0.8723     0.87229
   11          H(HETATM   11  H08 UNK     1)           0.123849        0.8762     0.87615
   12          H(HETATM   12  H09 UNK     1)           0.128240        0.8718     0.87176
   13          H(HETATM   13  H10 UNK     1)           0.135469        0.8645     0.86453
   14          H(HETATM   14  H11 UNK     1)           0.128088        0.8719     0.87191
   15          H(HETATM   15  H12 UNK     1)           0.124752        0.8752     0.87525
   16          H(HETATM   16  H14 UNK     1)           0.147309        0.8527     0.85269
   17          H(HETATM   17  H15 UNK     1)           0.146669        0.8533     0.85333

          NET CHARGE ON RESIDUES

      Residue         Charge  Anion or
                              Cation?
      UNK     1       +0.000
 


 DIPOLE           X         Y         Z       TOTAL
 POINT-CHG.     0.019     0.017    -0.048     0.055
 HYBRID        -0.018    -0.037     0.063     0.076
 SUM            0.001    -0.020     0.015     0.025


          ATOMIC ORBITAL ELECTRON POPULATIONS

                   Atom                  s        px        py        pz   
   C(HETATM    1  C01 UNK     1)   1.09097   1.10170   1.10970   1.15639
   C(HETATM    2  C02 UNK     1)   1.08655   1.05137   1.06980   1.01939
   C(HETATM    3  C03 UNK     1)   1.09348   1.07538   1.09700   1.00458
   C(HETATM    4  C04 UNK     1)   1.08604   1.07548   1.08485   0.97539
   C(HETATM    5  C05 UNK     1)   1.09146   1.15667   1.16043   1.05651
   H(HETATM    6  H01 UNK     1)   0.85745
   H(HETATM    7  H02 UNK     1)   0.85387
   H(HETATM    8  H03 UNK     1)   0.85216
   H(HETATM    9  H04 UNK     1)   0.85547
   H(HETATM   10  H07 UNK     1)   0.87229
   H(HETATM   11  H08 UNK     1)   0.87615
   H(HETATM   12  H09 UNK     1)   0.87176
   H(HETATM   13  H10 UNK     1)   0.86453
   H(HETATM   14  H11 UNK     1)   0.87191
   H(HETATM   15  H12 UNK     1)   0.87525
   H(HETATM   16  H14 UNK     1)   0.85269
   H(HETATM   17  H15 UNK     1)   0.85333

 **********************
 *                    *
 * JOB ENDED NORMALLY *
 *                    *
 **********************



 TOTAL JOB TIME:             0.22 SECONDS

 == MOPAC DONE ==
