 *******************************************************************************
 ** Site#: 9752         For non-commercial use only    Version 18.184M 64BITS **
 *******************************************************************************
 ** Cite this program as: MOPAC2016, Version: 18.184M, James J. P. Stewart,   **
 ** Stewart Computational Chemistry, web: HTTP://OpenMOPAC.net. Days left: 285**
 *******************************************************************************
 **                                                                           **
 **                                MOPAC2016                                  **
 **                                                                           **
 *******************************************************************************

                              PM6-D3H4 CALCULATION RESULTS

 *******************************************************************************
 *  CALCULATION DONE:                                Fri Sep 21 22:30:08 2018  *
 *  PM6-D3H4   - CORRECT DISPERSION AND HYDROGEN BOND TERMS USING THE D3H4 METHOD
 *  START_RES  - STARTING RESIDUE NUMBERS DEFINED
 *  Keyword:   START_RES=(1) 
 *
 *
 *
 *                 CHARGE ON SYSTEM = 0
 *
 *
 *
 *  T=         - A TIME OF 172800.0 SECONDS REQUESTED
 *  DUMP=N     - RESTART FILE WRITTEN EVERY  7200.000 SECONDS
 *******************************************************************************
 START_RES=(1) PM6-D3H4 charge=0
 Generated by weighted sterimol script

   ATOM                 CHEMICAL                   X               Y               Z
  NUMBER                 SYMBOL               (ANGSTROMS)     (ANGSTROMS)     (ANGSTROMS)
 
     1       C(HETATM    1  C01 UNK     1)    0.00000000  *   0.00000000  *   0.00000000  *
     2       C(HETATM    2  C02 UNK     1)    1.17100000  *   0.97500000  *  -0.22000000  *
     3       C(HETATM    3  C03 UNK     1)    1.75200000  *   1.39600000  *   1.14300000  *
     4       C(HETATM    4  C04 UNK     1)    0.96800000  *   0.70100000  *   2.27100000  *
     5       C(HETATM    5  C05 UNK     1)    0.84400000  *   1.65400000  *   3.47400000  *
     6       H(HETATM    6  H01 UNK     1)   -0.78500000  *   0.24400000  *  -0.65300000  *
     7       H(HETATM    7  H02 UNK     1)    0.32200000  *  -0.98100000  *  -0.19000000  *
     8       H(HETATM    8  H03 UNK     1)   -0.33500000  *   0.07300000  *   0.99300000  *
     9       H(HETATM    9  H04 UNK     1)    0.31000000  *   1.17900000  *   4.24400000  *
    10       H(HETATM   10  H07 UNK     1)    0.82800000  *   1.82500000  *  -0.73100000  *
    11       H(HETATM   11  H08 UNK     1)    1.91700000  *   0.50300000  *  -0.78700000  *
    12       H(HETATM   12  H09 UNK     1)    1.67100000  *   2.43800000  *   1.25200000  *
    13       H(HETATM   13  H10 UNK     1)    2.76200000  *   1.11600000  *   1.19600000  *
    14       H(HETATM   14  H11 UNK     1)    1.47300000  *  -0.17000000  *   2.56500000  *
    15       H(HETATM   15  H12 UNK     1)    0.00900000  *   0.44900000  *   1.92600000  *
    16       H(HETATM   16  H14 UNK     1)    0.33400000  *   2.52500000  *   3.18100000  *
    17       H(HETATM   17  H15 UNK     1)    1.80300000  *   1.90900000  *   3.82000000  *
 

 General Reference for PM6:
 "Optimization of Parameters for Semiempirical Methods V: Modification of NDDO Approximations
 and Application to 70 Elements", J. J. P. Stewart, J. Mol. Mod., 13, 1173-1213 (2007)
 URL: http://www.springerlink.com/content/ar33482301010477/fulltext.pdf

           Empirical Formula: C5 H12  =    17 atoms



      MOLECULAR POINT GROUP   :   C1  


      RHF CALCULATION, NO. OF DOUBLY OCCUPIED LEVELS = 16


          Geometry optimization using EF

          DIAGONAL MATRIX USED AS START HESSIAN

 CYCLE:     1 TIME:   0.016 TIME LEFT:  2.00D  GRAD.:   208.201 HEAT:  52.87025
 CYCLE:     2 TIME:   0.000 TIME LEFT:  2.00D  GRAD.:   154.207 HEAT:  30.45523
 CYCLE:     3 TIME:   0.000 TIME LEFT:  2.00D  GRAD.:   135.026 HEAT:  10.12330
 CYCLE:     4 TIME:   0.008 TIME LEFT:  2.00D  GRAD.:   101.161 HEAT:  6.525055
 CYCLE:     5 TIME:   0.008 TIME LEFT:  2.00D  GRAD.:    82.945 HEAT:  2.188291
 CYCLE:     6 TIME:   0.000 TIME LEFT:  2.00D  GRAD.:   110.356 HEAT:  1.421581
 CYCLE:     7 TIME:   0.008 TIME LEFT:  2.00D  GRAD.:    81.221 HEAT:-0.9536748
 CYCLE:     8 TIME:   0.000 TIME LEFT:  2.00D  GRAD.:    48.856 HEAT: -2.963469
 CYCLE:     9 TIME:   0.008 TIME LEFT:  2.00D  GRAD.:    50.403 HEAT: -3.430505
 CYCLE:    10 TIME:   0.000 TIME LEFT:  2.00D  GRAD.:    43.847 HEAT: -4.185753
 CYCLE:    11 TIME:   0.000 TIME LEFT:  2.00D  GRAD.:    42.432 HEAT: -4.801567
 CYCLE:    12 TIME:   0.008 TIME LEFT:  2.00D  GRAD.:    20.381 HEAT: -5.612411
 CYCLE:    13 TIME:   0.000 TIME LEFT:  2.00D  GRAD.:    17.298 HEAT: -6.030527
 CYCLE:    14 TIME:   0.000 TIME LEFT:  2.00D  GRAD.:    15.553 HEAT: -6.397927
 CYCLE:    15 TIME:   0.008 TIME LEFT:  2.00D  GRAD.:    11.093 HEAT: -6.627017
 CYCLE:    16 TIME:   0.000 TIME LEFT:  2.00D  GRAD.:     8.088 HEAT: -6.752316
 CYCLE:    17 TIME:   0.008 TIME LEFT:  2.00D  GRAD.:    10.749 HEAT: -6.930843
 CYCLE:    18 TIME:   0.000 TIME LEFT:  2.00D  GRAD.:    11.633 HEAT: -7.094101
 CYCLE:    19 TIME:   0.000 TIME LEFT:  2.00D  GRAD.:     7.257 HEAT: -7.210207
 CYCLE:    20 TIME:   0.008 TIME LEFT:  2.00D  GRAD.:    10.160 HEAT: -7.317154
 CYCLE:    21 TIME:   0.000 TIME LEFT:  2.00D  GRAD.:     9.840 HEAT: -7.463307
 CYCLE:    22 TIME:   0.008 TIME LEFT:  2.00D  GRAD.:     9.322 HEAT: -7.639432
 CYCLE:    23 TIME:   0.000 TIME LEFT:  2.00D  GRAD.:     7.141 HEAT: -7.756392
 CYCLE:    24 TIME:   0.000 TIME LEFT:  2.00D  GRAD.:     8.027 HEAT: -7.867887
 CYCLE:    25 TIME:   0.008 TIME LEFT:  2.00D  GRAD.:    13.643 HEAT: -8.043168
 CYCLE:    26 TIME:   0.000 TIME LEFT:  2.00D  GRAD.:    14.245 HEAT: -8.253739
 CYCLE:    27 TIME:   0.008 TIME LEFT:  2.00D  GRAD.:    15.984 HEAT: -8.840725
 CYCLE:    28 TIME:   0.000 TIME LEFT:  2.00D  GRAD.:    15.995 HEAT: -9.283453
 CYCLE:    29 TIME:   0.008 TIME LEFT:  2.00D  GRAD.:    19.570 HEAT: -9.589313
 CYCLE:    30 TIME:   0.000 TIME LEFT:  2.00D  GRAD.:    19.287 HEAT: -9.888595
 CYCLE:    31 TIME:   0.008 TIME LEFT:  2.00D  GRAD.:    14.438 HEAT: -10.23994
 CYCLE:    32 TIME:   0.000 TIME LEFT:  2.00D  GRAD.:     9.639 HEAT: -10.42756
 CYCLE:    33 TIME:   0.000 TIME LEFT:  2.00D  GRAD.:    10.734 HEAT: -10.63001
 CYCLE:    34 TIME:   0.008 TIME LEFT:  2.00D  GRAD.:     6.647 HEAT: -10.78923
 CYCLE:    35 TIME:   0.000 TIME LEFT:  2.00D  GRAD.:    10.359 HEAT: -10.87627
 CYCLE:    36 TIME:   0.000 TIME LEFT:  2.00D  GRAD.:     6.533 HEAT: -10.98021
 CYCLE:    37 TIME:   0.008 TIME LEFT:  2.00D  GRAD.:     5.790 HEAT: -11.11550
 CYCLE:    38 TIME:   0.000 TIME LEFT:  2.00D  GRAD.:     4.298 HEAT: -11.16757
 CYCLE:    39 TIME:   0.000 TIME LEFT:  2.00D  GRAD.:     4.965 HEAT: -11.23006
 CYCLE:    40 TIME:   0.008 TIME LEFT:  2.00D  GRAD.:     3.761 HEAT: -11.26068
 CYCLE:    41 TIME:   0.000 TIME LEFT:  2.00D  GRAD.:     4.523 HEAT: -11.29144
 CYCLE:    42 TIME:   0.008 TIME LEFT:  2.00D  GRAD.:     3.612 HEAT: -11.31861
 CYCLE:    43 TIME:   0.000 TIME LEFT:  2.00D  GRAD.:     3.527 HEAT: -11.34478
 CYCLE:    44 TIME:   0.000 TIME LEFT:  2.00D  GRAD.:     3.764 HEAT: -11.38917
 CYCLE:    45 TIME:   0.008 TIME LEFT:  2.00D  GRAD.:     4.463 HEAT: -11.42073
 CYCLE:    46 TIME:   0.000 TIME LEFT:  2.00D  GRAD.:     7.482 HEAT: -11.44967
 CYCLE:    47 TIME:   0.000 TIME LEFT:  2.00D  GRAD.:     7.243 HEAT: -11.52665
 CYCLE:    48 TIME:   0.008 TIME LEFT:  2.00D  GRAD.:     6.798 HEAT: -11.58373
 CYCLE:    49 TIME:   0.000 TIME LEFT:  2.00D  GRAD.:     7.879 HEAT: -11.80394
 CYCLE:    50 TIME:   0.008 TIME LEFT:  2.00D  GRAD.:     7.594 HEAT: -11.90427
 CYCLE:    51 TIME:   0.000 TIME LEFT:  2.00D  GRAD.:    13.266 HEAT: -12.08246
 CYCLE:    52 TIME:   0.000 TIME LEFT:  2.00D  GRAD.:    21.152 HEAT: -12.49080
 CYCLE:    53 TIME:   0.008 TIME LEFT:  2.00D  GRAD.:    15.313 HEAT: -12.89444
 CYCLE:    54 TIME:   0.000 TIME LEFT:  2.00D  GRAD.:    29.290 HEAT: -12.97886
 CYCLE:    55 TIME:   0.008 TIME LEFT:  2.00D  GRAD.:    34.163 HEAT: -12.99007
 CYCLE:    56 TIME:   0.000 TIME LEFT:  2.00D  GRAD.:    15.735 HEAT: -13.26098
 CYCLE:    57 TIME:   0.000 TIME LEFT:  2.00D  GRAD.:    18.320 HEAT: -13.43825
 CYCLE:    58 TIME:   0.008 TIME LEFT:  2.00D  GRAD.:     8.511 HEAT: -13.73052
 CYCLE:    59 TIME:   0.000 TIME LEFT:  2.00D  GRAD.:    10.789 HEAT: -13.83340
 CYCLE:    60 TIME:   0.000 TIME LEFT:  2.00D  GRAD.:    12.395 HEAT: -13.93547
 CYCLE:    61 TIME:   0.008 TIME LEFT:  2.00D  GRAD.:    16.760 HEAT: -14.10539
 CYCLE:    62 TIME:   0.000 TIME LEFT:  2.00D  GRAD.:     7.848 HEAT: -14.20508
 CYCLE:    63 TIME:   0.008 TIME LEFT:  2.00D  GRAD.:     6.353 HEAT: -14.27671
 CYCLE:    64 TIME:   0.000 TIME LEFT:  2.00D  GRAD.:     6.430 HEAT: -14.33323
 CYCLE:    65 TIME:   0.000 TIME LEFT:  2.00D  GRAD.:     8.414 HEAT: -14.41654
 CYCLE:    66 TIME:   0.000 TIME LEFT:  2.00D  GRAD.:     6.991 HEAT: -14.48724
 CYCLE:    67 TIME:   0.008 TIME LEFT:  2.00D  GRAD.:     4.630 HEAT: -14.55438
 CYCLE:    68 TIME:   0.000 TIME LEFT:  2.00D  GRAD.:     3.765 HEAT: -14.62351
 CYCLE:    69 TIME:   0.000 TIME LEFT:  2.00D  GRAD.:     5.574 HEAT: -14.67131
 CYCLE:    70 TIME:   0.008 TIME LEFT:  2.00D  GRAD.:     6.187 HEAT: -14.70652
 CYCLE:    71 TIME:   0.000 TIME LEFT:  2.00D  GRAD.:     4.256 HEAT: -14.74012
 CYCLE:    72 TIME:   0.008 TIME LEFT:  2.00D  GRAD.:     3.106 HEAT: -14.75634
 CYCLE:    73 TIME:   0.000 TIME LEFT:  2.00D  GRAD.:     3.095 HEAT: -14.77594
 CYCLE:    74 TIME:   0.008 TIME LEFT:  2.00D  GRAD.:     1.941 HEAT: -14.78710
 CYCLE:    75 TIME:   0.008 TIME LEFT:  2.00D  GRAD.:     1.881 HEAT: -14.79867
 CYCLE:    76 TIME:   0.008 TIME LEFT:  2.00D  GRAD.:     2.311 HEAT: -14.80542
 CYCLE:    77 TIME:   0.000 TIME LEFT:  2.00D  GRAD.:     1.744 HEAT: -14.81000
 CYCLE:    78 TIME:   0.008 TIME LEFT:  2.00D  GRAD.:     1.501 HEAT: -14.81249
 CYCLE:    79 TIME:   0.000 TIME LEFT:  2.00D  GRAD.:     1.156 HEAT: -14.81602
 CYCLE:    80 TIME:   0.000 TIME LEFT:  2.00D  GRAD.:     0.790 HEAT: -14.81771

     GRADIENT =  0.79002  IS LESS THAN CUTOFF =  1.00000



 -------------------------------------------------------------------------------
 START_RES=(1) PM6-D3H4 charge=0
 Generated by weighted sterimol script



     GEOMETRY OPTIMISED USING EIGENVECTOR FOLLOWING (EF).     
     SCF FIELD WAS ACHIEVED                                   


                              PM6-D3H4 CALCULATION
                                                       MOPAC2016 (Version: 18.184M)
                                                       Fri Sep 21 22:30:09 2018
                                                       No. of days remaining = 285




          FINAL HEAT OF FORMATION =        -14.81771 KCAL/MOL =     -61.99732 KJ/MOL


          TOTAL ENERGY            =       -776.40105 EV
          ELECTRONIC ENERGY       =      -3419.30595 EV  POINT GROUP:     C1  
          CORE-CORE REPULSION     =       2642.90491 EV
          COSMO AREA              =        134.67 SQUARE ANGSTROMS
          COSMO VOLUME            =        123.20 CUBIC ANGSTROMS

          GRADIENT NORM           =          0.79002 = 0.19161 PER ATOM
          IONIZATION POTENTIAL    =         11.047762 EV
          HOMO LUMO ENERGIES (EV) =        -11.048  4.195
          NO. OF FILLED LEVELS    =         16
          MOLECULAR WEIGHT        =         72.1498

          MOLECULAR DIMENSIONS (Angstroms)

            Atom       Atom       Distance
            H     9    H     6     6.27890
            H    12    H     8     3.38817
            H    13    H    10     2.78621


          SCF CALCULATIONS        =         86
 
          WALL-CLOCK TIME         =          0.281 SECONDS
          COMPUTATION TIME        =          0.505 SECONDS




   ATOM                 CHEMICAL                   X               Y               Z
  NUMBER                 SYMBOL               (ANGSTROMS)     (ANGSTROMS)     (ANGSTROMS)
 
     1       C(HETATM    1  C01 UNK     1)    0.43077942  *  -0.38334578  *  -0.39891318  *
     2       C(HETATM    2  C02 UNK     1)    0.84232249  *   1.07295305  *  -0.16499143  *
     3       C(HETATM    3  C03 UNK     1)    1.52714241  *   1.30411210  *   1.19286967  *
     4       C(HETATM    4  C04 UNK     1)    0.55477778  *   1.20366307  *   2.38014865  *
     5       C(HETATM    5  C05 UNK     1)    1.22596679  *   1.60073773  *   3.69867068  *
     6       H(HETATM    6  H01 UNK     1)   -0.02321493  *  -0.48759577  *  -1.40883743  *
     7       H(HETATM    7  H02 UNK     1)    1.31753260  *  -1.05157733  *  -0.33004344  *
     8       H(HETATM    8  H03 UNK     1)   -0.31519920  *  -0.70235326  *   0.36132406  *
     9       H(HETATM    9  H04 UNK     1)    0.52328839  *   1.43205360  *   4.54438707  *
    10       H(HETATM   10  H07 UNK     1)   -0.06284746  *   1.72265693  *  -0.23577829  *
    11       H(HETATM   11  H08 UNK     1)    1.55464810  *   1.37635022  *  -0.97156331  *
    12       H(HETATM   12  H09 UNK     1)    1.98419425  *   2.32299010  *   1.18791443  *
    13       H(HETATM   13  H10 UNK     1)    2.34249555  *   0.55484621  *   1.32565018  *
    14       H(HETATM   14  H11 UNK     1)    0.18490551  *   0.15396564  *   2.46227198  *
    15       H(HETATM   15  H12 UNK     1)   -0.31923294  *   1.87312784  *   2.19893273  *
    16       H(HETATM   16  H14 UNK     1)    1.51238054  *   2.67549924  *   3.67907612  *
    17       H(HETATM   17  H15 UNK     1)    2.14170830  *   0.99107197  *   3.86532699  *

                             CARTESIAN COORDINATES

   1    C        0.430779421    -0.383345778    -0.398913176
   2    C        0.842322490     1.072953049    -0.164991432
   3    C        1.527142405     1.304112101     1.192869669
   4    C        0.554777782     1.203663074     2.380148653
   5    C        1.225966789     1.600737728     3.698670683
   6    H       -0.023214930    -0.487595771    -1.408837431
   7    H        1.317532596    -1.051577330    -0.330043440
   8    H       -0.315199200    -0.702353263     0.361324056
   9    H        0.523288391     1.432053600     4.544387072
  10    H       -0.062847465     1.722656928    -0.235778292
  11    H        1.554648103     1.376350218    -0.971563311
  12    H        1.984194253     2.322990098     1.187914425
  13    H        2.342495547     0.554846210     1.325650177
  14    H        0.184905509     0.153965642     2.462271983
  15    H       -0.319232944     1.873127844     2.198932730
  16    H        1.512380535     2.675499235     3.679076117
  17    H        2.141708296     0.991071971     3.865326986


           Empirical Formula: C5 H12  =    17 atoms



      MOLECULAR POINT GROUP   :   C1  


                  EIGENVALUES  
 -28.40419 -26.26944 -23.35691 -20.88370 -19.41509 -15.88423 -15.16465 -14.74133
 -13.95125 -13.24069 -12.81793 -12.30812 -11.88314 -11.39146 -11.17031 -11.04776
   4.19473   4.46956   4.63647   4.88259   5.64718   5.72623   5.96453   5.97373
   6.04407   6.23125   6.35392   6.49870   6.61542   6.62646   6.81901   6.88796


              NET ATOMIC CHARGES AND DIPOLE CONTRIBUTIONS

  ATOM NO.                 TYPE                        CHARGE      No. of ELECS.   s-Pop       p-Pop       
    1          C(HETATM    1  C01 UNK     1)          -0.458617        4.4586     1.09073     3.36789
    2          C(HETATM    2  C02 UNK     1)          -0.226817        4.2268     1.08662     3.14020
    3          C(HETATM    3  C03 UNK     1)          -0.270534        4.2705     1.09336     3.17717
    4          C(HETATM    4  C04 UNK     1)          -0.220839        4.2208     1.08590     3.13494
    5          C(HETATM    5  C05 UNK     1)          -0.465638        4.4656     1.09161     3.37403
    6          H(HETATM    6  H01 UNK     1)           0.142425        0.8576     0.85757
    7          H(HETATM    7  H02 UNK     1)           0.146582        0.8534     0.85342
    8          H(HETATM    8  H03 UNK     1)           0.147539        0.8525     0.85246
    9          H(HETATM    9  H04 UNK     1)           0.144633        0.8554     0.85537
   10          H(HETATM   10  H07 UNK     1)           0.127220        0.8728     0.87278
   11          H(HETATM   11  H08 UNK     1)           0.123895        0.8761     0.87610
   12          H(HETATM   12  H09 UNK     1)           0.129500        0.8705     0.87050
   13          H(HETATM   13  H10 UNK     1)           0.133467        0.8665     0.86653
   14          H(HETATM   14  H11 UNK     1)           0.127371        0.8726     0.87263
   15          H(HETATM   15  H12 UNK     1)           0.126036        0.8740     0.87396
   16          H(HETATM   16  H14 UNK     1)           0.146370        0.8536     0.85363
   17          H(HETATM   17  H15 UNK     1)           0.147408        0.8526     0.85259

          NET CHARGE ON RESIDUES

      Residue         Charge  Anion or
                              Cation?
      UNK     1       +0.000
 


 DIPOLE           X         Y         Z       TOTAL
 POINT-CHG.    -0.007     0.030    -0.044     0.054
 HYBRID         0.026    -0.039     0.050     0.069
 SUM            0.018    -0.009     0.006     0.021


          ATOMIC ORBITAL ELECTRON POPULATIONS

                   Atom                  s        px        py        pz   
   C(HETATM    1  C01 UNK     1)   1.09073   1.15529   1.05747   1.15512
   C(HETATM    2  C02 UNK     1)   1.08662   1.10303   1.00668   1.03048
   C(HETATM    3  C03 UNK     1)   1.09336   1.06297   1.13443   0.97978
   C(HETATM    4  C04 UNK     1)   1.08590   1.05123   1.12454   0.95917
   C(HETATM    5  C05 UNK     1)   1.09161   1.14306   1.15726   1.07371
   H(HETATM    6  H01 UNK     1)   0.85757
   H(HETATM    7  H02 UNK     1)   0.85342
   H(HETATM    8  H03 UNK     1)   0.85246
   H(HETATM    9  H04 UNK     1)   0.85537
   H(HETATM   10  H07 UNK     1)   0.87278
   H(HETATM   11  H08 UNK     1)   0.87610
   H(HETATM   12  H09 UNK     1)   0.87050
   H(HETATM   13  H10 UNK     1)   0.86653
   H(HETATM   14  H11 UNK     1)   0.87263
   H(HETATM   15  H12 UNK     1)   0.87396
   H(HETATM   16  H14 UNK     1)   0.85363
   H(HETATM   17  H15 UNK     1)   0.85259

 **********************
 *                    *
 * JOB ENDED NORMALLY *
 *                    *
 **********************



 TOTAL JOB TIME:             0.28 SECONDS

 == MOPAC DONE ==
