 *******************************************************************************
 ** Site#: 9752         For non-commercial use only    Version 18.184M 64BITS **
 *******************************************************************************
 ** Cite this program as: MOPAC2016, Version: 18.184M, James J. P. Stewart,   **
 ** Stewart Computational Chemistry, web: HTTP://OpenMOPAC.net. Days left: 285**
 *******************************************************************************
 **                                                                           **
 **                                MOPAC2016                                  **
 **                                                                           **
 *******************************************************************************

                              PM6-D3H4 CALCULATION RESULTS

 *******************************************************************************
 *  CALCULATION DONE:                                Fri Sep 21 22:30:11 2018  *
 *  PM6-D3H4   - CORRECT DISPERSION AND HYDROGEN BOND TERMS USING THE D3H4 METHOD
 *  START_RES  - STARTING RESIDUE NUMBERS DEFINED
 *  Keyword:   START_RES=(1) 
 *
 *
 *
 *                 CHARGE ON SYSTEM = 0
 *
 *
 *
 *  T=         - A TIME OF 172800.0 SECONDS REQUESTED
 *  DUMP=N     - RESTART FILE WRITTEN EVERY  7200.000 SECONDS
 *******************************************************************************
 START_RES=(1) PM6-D3H4 charge=0
 Generated by weighted sterimol script

   ATOM                 CHEMICAL                   X               Y               Z
  NUMBER                 SYMBOL               (ANGSTROMS)     (ANGSTROMS)     (ANGSTROMS)
 
     1       C(HETATM    1  C01 UNK     1)    0.00000000  *   0.00000000  *   0.00000000  *
     2       C(HETATM    2  C02 UNK     1)    1.17100000  *   0.97500000  *  -0.22000000  *
     3       C(HETATM    3  C03 UNK     1)    1.75200000  *   1.39600000  *   1.14300000  *
     4       C(HETATM    4  C04 UNK     1)    3.27900000  *   1.55400000  *   1.02300000  *
     5       C(HETATM    5  C05 UNK     1)    3.60300000  *   2.82000000  *   0.20900000  *
     6       H(HETATM    6  H01 UNK     1)   -0.78500000  *   0.24400000  *  -0.65300000  *
     7       H(HETATM    7  H02 UNK     1)    0.32200000  *  -0.98100000  *  -0.19000000  *
     8       H(HETATM    8  H03 UNK     1)   -0.33500000  *   0.07300000  *   0.99300000  *
     9       H(HETATM    9  H04 UNK     1)    4.64400000  *   2.92600000  *   0.12600000  *
    10       H(HETATM   10  H07 UNK     1)    0.82800000  *   1.82500000  *  -0.73100000  *
    11       H(HETATM   11  H08 UNK     1)    1.91700000  *   0.50300000  *  -0.78700000  *
    12       H(HETATM   12  H09 UNK     1)    1.53200000  *   0.66100000  *   1.86000000  *
    13       H(HETATM   13  H10 UNK     1)    1.32900000  *   2.31000000  *   1.43800000  *
    14       H(HETATM   14  H11 UNK     1)    3.68100000  *   0.71400000  *   0.53900000  *
    15       H(HETATM   15  H12 UNK     1)    3.69800000  *   1.63800000  *   1.98200000  *
    16       H(HETATM   16  H14 UNK     1)    3.20400000  *   3.66100000  *   0.69500000  *
    17       H(HETATM   17  H15 UNK     1)    3.18200000  *   2.73700000  *  -0.75000000  *
 

 General Reference for PM6:
 "Optimization of Parameters for Semiempirical Methods V: Modification of NDDO Approximations
 and Application to 70 Elements", J. J. P. Stewart, J. Mol. Mod., 13, 1173-1213 (2007)
 URL: http://www.springerlink.com/content/ar33482301010477/fulltext.pdf

           Empirical Formula: C5 H12  =    17 atoms



      MOLECULAR POINT GROUP   :   C1  


      RHF CALCULATION, NO. OF DOUBLY OCCUPIED LEVELS = 16


          Geometry optimization using EF

          DIAGONAL MATRIX USED AS START HESSIAN

 CYCLE:     1 TIME:   0.008 TIME LEFT:  2.00D  GRAD.:   175.519 HEAT:  5.192558
 CYCLE:     2 TIME:   0.000 TIME LEFT:  2.00D  GRAD.:   110.944 HEAT: -7.132244
 CYCLE:     3 TIME:   0.008 TIME LEFT:  2.00D  GRAD.:    42.947 HEAT: -10.85722
 CYCLE:     4 TIME:   0.008 TIME LEFT:  2.00D  GRAD.:    24.056 HEAT: -11.51909
 CYCLE:     5 TIME:   0.000 TIME LEFT:  2.00D  GRAD.:    18.697 HEAT: -11.74735
 CYCLE:     6 TIME:   0.008 TIME LEFT:  2.00D  GRAD.:    25.466 HEAT: -11.83472
 CYCLE:     7 TIME:   0.000 TIME LEFT:  2.00D  GRAD.:    19.424 HEAT: -12.08250
 CYCLE:     8 TIME:   0.000 TIME LEFT:  2.00D  GRAD.:    19.393 HEAT: -12.19500
 CYCLE:     9 TIME:   0.008 TIME LEFT:  2.00D  GRAD.:    14.689 HEAT: -12.35236
 CYCLE:    10 TIME:   0.000 TIME LEFT:  2.00D  GRAD.:    13.514 HEAT: -12.47678
 CYCLE:    11 TIME:   0.008 TIME LEFT:  2.00D  GRAD.:    15.441 HEAT: -12.61861
 CYCLE:    12 TIME:   0.000 TIME LEFT:  2.00D  GRAD.:    13.637 HEAT: -12.74746
 CYCLE:    13 TIME:   0.008 TIME LEFT:  2.00D  GRAD.:    14.446 HEAT: -12.82765
 CYCLE:    14 TIME:   0.000 TIME LEFT:  2.00D  GRAD.:     9.533 HEAT: -12.93363
 CYCLE:    15 TIME:   0.000 TIME LEFT:  2.00D  GRAD.:    11.985 HEAT: -12.98349
 CYCLE:    16 TIME:   0.008 TIME LEFT:  2.00D  GRAD.:     6.118 HEAT: -13.06963
 CYCLE:    17 TIME:   0.000 TIME LEFT:  2.00D  GRAD.:     6.892 HEAT: -13.13490
 CYCLE:    18 TIME:   0.000 TIME LEFT:  2.00D  GRAD.:     6.413 HEAT: -13.18608
 CYCLE:    19 TIME:   0.008 TIME LEFT:  2.00D  GRAD.:     5.652 HEAT: -13.23395
 CYCLE:    20 TIME:   0.000 TIME LEFT:  2.00D  GRAD.:     4.728 HEAT: -13.28366
 CYCLE:    21 TIME:   0.008 TIME LEFT:  2.00D  GRAD.:     5.592 HEAT: -13.34522
 CYCLE:    22 TIME:   0.000 TIME LEFT:  2.00D  GRAD.:     7.592 HEAT: -13.40506
 CYCLE:    23 TIME:   0.000 TIME LEFT:  2.00D  GRAD.:     6.134 HEAT: -13.46664
 CYCLE:    24 TIME:   0.008 TIME LEFT:  2.00D  GRAD.:     5.878 HEAT: -13.53909
 CYCLE:    25 TIME:   0.000 TIME LEFT:  2.00D  GRAD.:     5.853 HEAT: -13.61221
 CYCLE:    26 TIME:   0.008 TIME LEFT:  2.00D  GRAD.:     8.043 HEAT: -13.66624
 CYCLE:    27 TIME:   0.000 TIME LEFT:  2.00D  GRAD.:     6.818 HEAT: -13.72579
 CYCLE:    28 TIME:   0.000 TIME LEFT:  2.00D  GRAD.:     6.605 HEAT: -13.79458
 CYCLE:    29 TIME:   0.008 TIME LEFT:  2.00D  GRAD.:     6.574 HEAT: -13.87984
 CYCLE:    30 TIME:   0.000 TIME LEFT:  2.00D  GRAD.:     6.534 HEAT: -13.96496
 CYCLE:    31 TIME:   0.000 TIME LEFT:  2.00D  GRAD.:     9.739 HEAT: -14.05567
 CYCLE:    32 TIME:   0.008 TIME LEFT:  2.00D  GRAD.:     9.097 HEAT: -14.11585
 CYCLE:    33 TIME:   0.000 TIME LEFT:  2.00D  GRAD.:     6.098 HEAT: -14.21364
 CYCLE:    34 TIME:   0.000 TIME LEFT:  2.00D  GRAD.:     7.224 HEAT: -14.29834
 CYCLE:    35 TIME:   0.008 TIME LEFT:  2.00D  GRAD.:     5.131 HEAT: -14.35208
 CYCLE:    36 TIME:   0.000 TIME LEFT:  2.00D  GRAD.:     3.829 HEAT: -14.39359
 CYCLE:    37 TIME:   0.000 TIME LEFT:  2.00D  GRAD.:     2.770 HEAT: -14.41906
 CYCLE:    38 TIME:   0.008 TIME LEFT:  2.00D  GRAD.:     3.198 HEAT: -14.43467
 CYCLE:    39 TIME:   0.000 TIME LEFT:  2.00D  GRAD.:     3.338 HEAT: -14.45578
 CYCLE:    40 TIME:   0.008 TIME LEFT:  2.00D  GRAD.:     2.276 HEAT: -14.47646
 CYCLE:    41 TIME:   0.000 TIME LEFT:  2.00D  GRAD.:     2.216 HEAT: -14.48270
 CYCLE:    42 TIME:   0.008 TIME LEFT:  2.00D  GRAD.:     1.906 HEAT: -14.49233
 CYCLE:    43 TIME:   0.000 TIME LEFT:  2.00D  GRAD.:     1.599 HEAT: -14.49773
 CYCLE:    44 TIME:   0.000 TIME LEFT:  2.00D  GRAD.:     1.983 HEAT: -14.51074
 CYCLE:    45 TIME:   0.008 TIME LEFT:  2.00D  GRAD.:     1.854 HEAT: -14.52039
 CYCLE:    46 TIME:   0.000 TIME LEFT:  2.00D  GRAD.:     2.505 HEAT: -14.53035
 CYCLE:    47 TIME:   0.008 TIME LEFT:  2.00D  GRAD.:     2.037 HEAT: -14.54017
 CYCLE:    48 TIME:   0.000 TIME LEFT:  2.00D  GRAD.:     2.563 HEAT: -14.55423
 CYCLE:    49 TIME:   0.000 TIME LEFT:  2.00D  GRAD.:     2.860 HEAT: -14.58207
 CYCLE:    50 TIME:   0.008 TIME LEFT:  2.00D  GRAD.:     2.950 HEAT: -14.60093
 CYCLE:    51 TIME:   0.000 TIME LEFT:  2.00D  GRAD.:     3.151 HEAT: -14.62111
 CYCLE:    52 TIME:   0.000 TIME LEFT:  2.00D  GRAD.:     4.989 HEAT: -14.63736
 CYCLE:    53 TIME:   0.000 TIME LEFT:  2.00D  GRAD.:     3.850 HEAT: -14.66402
 CYCLE:    54 TIME:   0.008 TIME LEFT:  2.00D  GRAD.:     5.822 HEAT: -14.68444
 CYCLE:    55 TIME:   0.000 TIME LEFT:  2.00D  GRAD.:     2.572 HEAT: -14.71372
 CYCLE:    56 TIME:   0.000 TIME LEFT:  2.00D  GRAD.:     2.455 HEAT: -14.73034
 CYCLE:    57 TIME:   0.008 TIME LEFT:  2.00D  GRAD.:     3.190 HEAT: -14.75042
 CYCLE:    58 TIME:   0.000 TIME LEFT:  2.00D  GRAD.:     2.011 HEAT: -14.75907
 CYCLE:    59 TIME:   0.008 TIME LEFT:  2.00D  GRAD.:     1.877 HEAT: -14.76795
 CYCLE:    60 TIME:   0.000 TIME LEFT:  2.00D  GRAD.:     1.961 HEAT: -14.77516
 CYCLE:    61 TIME:   0.000 TIME LEFT:  2.00D  GRAD.:     1.760 HEAT: -14.78392
 CYCLE:    62 TIME:   0.008 TIME LEFT:  2.00D  GRAD.:     2.139 HEAT: -14.78992
 CYCLE:    63 TIME:   0.000 TIME LEFT:  2.00D  GRAD.:     2.100 HEAT: -14.79624
 CYCLE:    64 TIME:   0.000 TIME LEFT:  2.00D  GRAD.:     1.969 HEAT: -14.80595
 CYCLE:    65 TIME:   0.000 TIME LEFT:  2.00D  GRAD.:     1.570 HEAT: -14.81031
 CYCLE:    66 TIME:   0.008 TIME LEFT:  2.00D  GRAD.:     1.334 HEAT: -14.81535
 CYCLE:    67 TIME:   0.000 TIME LEFT:  2.00D  GRAD.:     1.002 HEAT: -14.81771
 CYCLE:    68 TIME:   0.000 TIME LEFT:  2.00D  GRAD.:     1.015 HEAT: -14.82060
 CYCLE:    69 TIME:   0.008 TIME LEFT:  2.00D  GRAD.:     1.024 HEAT: -14.82244
 CYCLE:    70 TIME:   0.000 TIME LEFT:  2.00D  GRAD.:     1.008 HEAT: -14.82450
 CYCLE:    71 TIME:   0.000 TIME LEFT:  2.00D  GRAD.:     0.934 HEAT: -14.82647

     GRADIENT =  0.93383  IS LESS THAN CUTOFF =  1.00000



 -------------------------------------------------------------------------------
 START_RES=(1) PM6-D3H4 charge=0
 Generated by weighted sterimol script



     GEOMETRY OPTIMISED USING EIGENVECTOR FOLLOWING (EF).     
     SCF FIELD WAS ACHIEVED                                   


                              PM6-D3H4 CALCULATION
                                                       MOPAC2016 (Version: 18.184M)
                                                       Fri Sep 21 22:30:11 2018
                                                       No. of days remaining = 285




          FINAL HEAT OF FORMATION =        -14.82647 KCAL/MOL =     -62.03394 KJ/MOL


          TOTAL ENERGY            =       -776.40114 EV
          ELECTRONIC ENERGY       =      -3419.83646 EV  POINT GROUP:     C1  
          CORE-CORE REPULSION     =       2643.43532 EV
          COSMO AREA              =        134.52 SQUARE ANGSTROMS
          COSMO VOLUME            =        122.93 CUBIC ANGSTROMS

          GRADIENT NORM           =          0.93383 = 0.22649 PER ATOM
          IONIZATION POTENTIAL    =         11.058008 EV
          HOMO LUMO ENERGIES (EV) =        -11.058  4.196
          NO. OF FILLED LEVELS    =         16
          MOLECULAR WEIGHT        =         72.1498

          MOLECULAR DIMENSIONS (Angstroms)

            Atom       Atom       Distance
            H     9    H     6     6.32038
            H    17    H    12     3.41185
            H    14    H    16     2.80837


          SCF CALCULATIONS        =         76
 
          WALL-CLOCK TIME         =          0.227 SECONDS
          COMPUTATION TIME        =          0.436 SECONDS




   ATOM                 CHEMICAL                   X               Y               Z
  NUMBER                 SYMBOL               (ANGSTROMS)     (ANGSTROMS)     (ANGSTROMS)
 
     1       C(HETATM    1  C01 UNK     1)   -0.17012613  *   0.19832356  *   0.01082367  *
     2       C(HETATM    2  C02 UNK     1)    1.23169778  *   0.77531229  *  -0.20812038  *
     3       C(HETATM    3  C03 UNK     1)    1.90753339  *   1.14974618  *   1.12139245  *
     4       C(HETATM    4  C04 UNK     1)    3.36780463  *   1.59974108  *   0.94369400  *
     5       C(HETATM    5  C05 UNK     1)    3.50928460  *   2.96609148  *   0.26649899  *
     6       H(HETATM    6  H01 UNK     1)   -0.63675443  *  -0.04287587  *  -0.96954526  *
     7       H(HETATM    7  H02 UNK     1)   -0.11349991  *  -0.73127033  *   0.61861800  *
     8       H(HETATM    8  H03 UNK     1)   -0.81223856  *   0.93462780  *   0.54228099  *
     9       H(HETATM    9  H04 UNK     1)    4.56822788  *   3.30333408  *   0.31820256  *
    10       H(HETATM   10  H07 UNK     1)    1.15743569  *   1.68367069  *  -0.85093351  *
    11       H(HETATM   11  H08 UNK     1)    1.86064317  *   0.02125496  *  -0.73889279  *
    12       H(HETATM   12  H09 UNK     1)    1.89295228  *   0.25892241  *   1.79472863  *
    13       H(HETATM   13  H10 UNK     1)    1.32758674  *   1.96694364  *   1.61050188  *
    14       H(HETATM   14  H11 UNK     1)    3.91447737  *   0.83625931  *   0.34038060  *
    15       H(HETATM   15  H12 UNK     1)    3.84160592  *   1.65240211  *   1.95473067  *
    16       H(HETATM   16  H14 UNK     1)    2.86727784  *   3.71858919  *   0.77509225  *
    17       H(HETATM   17  H15 UNK     1)    3.20708014  *   2.90171771  *  -0.80166709  *

                             CARTESIAN COORDINATES

   1    C       -0.170126133     0.198323561     0.010823675
   2    C        1.231697776     0.775312288    -0.208120378
   3    C        1.907533388     1.149746184     1.121392454
   4    C        3.367804628     1.599741083     0.943693996
   5    C        3.509284599     2.966091478     0.266498991
   6    H       -0.636754432    -0.042875872    -0.969545256
   7    H       -0.113499912    -0.731270326     0.618618001
   8    H       -0.812238560     0.934627799     0.542280994
   9    H        4.568227881     3.303334082     0.318202556
  10    H        1.157435693     1.683670686    -0.850933509
  11    H        1.860643166     0.021254960    -0.738892790
  12    H        1.892952279     0.258922406     1.794728632
  13    H        1.327586745     1.966943635     1.610501876
  14    H        3.914477367     0.836259313     0.340380600
  15    H        3.841605924     1.652402108     1.954730672
  16    H        2.867277835     3.718589190     0.775092248
  17    H        3.207080139     2.901717708    -0.801667089


           Empirical Formula: C5 H12  =    17 atoms



      MOLECULAR POINT GROUP   :   C1  


                  EIGENVALUES  
 -28.40557 -26.26969 -23.36269 -20.88110 -19.41853 -15.89393 -15.16758 -14.72824
 -13.95163 -13.23211 -12.83171 -12.30030 -11.88602 -11.39046 -11.16251 -11.05801
   4.19579   4.46692   4.64141   4.88192   5.64772   5.72493   5.96394   5.97571
   6.04844   6.23738   6.35488   6.50362   6.61075   6.62969   6.82282   6.88464


              NET ATOMIC CHARGES AND DIPOLE CONTRIBUTIONS

  ATOM NO.                 TYPE                        CHARGE      No. of ELECS.   s-Pop       p-Pop       
    1          C(HETATM    1  C01 UNK     1)          -0.465409        4.4654     1.09140     3.37401
    2          C(HETATM    2  C02 UNK     1)          -0.220918        4.2209     1.08569     3.13523
    3          C(HETATM    3  C03 UNK     1)          -0.270280        4.2703     1.09340     3.17688
    4          C(HETATM    4  C04 UNK     1)          -0.227092        4.2271     1.08656     3.14053
    5          C(HETATM    5  C05 UNK     1)          -0.458335        4.4583     1.09077     3.36756
    6          H(HETATM    6  H01 UNK     1)           0.144599        0.8554     0.85540
    7          H(HETATM    7  H02 UNK     1)           0.146520        0.8535     0.85348
    8          H(HETATM    8  H03 UNK     1)           0.147178        0.8528     0.85282
    9          H(HETATM    9  H04 UNK     1)           0.142348        0.8577     0.85765
   10          H(HETATM   10  H07 UNK     1)           0.127839        0.8722     0.87216
   11          H(HETATM   11  H08 UNK     1)           0.125736        0.8743     0.87426
   12          H(HETATM   12  H09 UNK     1)           0.129235        0.8708     0.87077
   13          H(HETATM   13  H10 UNK     1)           0.133333        0.8667     0.86667
   14          H(HETATM   14  H11 UNK     1)           0.127210        0.8728     0.87279
   15          H(HETATM   15  H12 UNK     1)           0.123865        0.8761     0.87613
   16          H(HETATM   16  H14 UNK     1)           0.147353        0.8526     0.85265
   17          H(HETATM   17  H15 UNK     1)           0.146819        0.8532     0.85318

          NET CHARGE ON RESIDUES

      Residue         Charge  Anion or
                              Cation?
      UNK     1       +0.000
 


 DIPOLE           X         Y         Z       TOTAL
 POINT-CHG.     0.053    -0.019     0.019     0.059
 HYBRID        -0.060     0.028    -0.006     0.067
 SUM           -0.007     0.009     0.013     0.017


          ATOMIC ORBITAL ELECTRON POPULATIONS

                   Atom                  s        px        py        pz   
   C(HETATM    1  C01 UNK     1)   1.09140   1.06646   1.14789   1.15965
   C(HETATM    2  C02 UNK     1)   1.08569   0.99142   1.10768   1.03613
   C(HETATM    3  C03 UNK     1)   1.09340   1.00991   1.12091   1.04606
   C(HETATM    4  C04 UNK     1)   1.08656   1.01990   1.01702   1.10362
   C(HETATM    5  C05 UNK     1)   1.09077   1.15626   1.06831   1.14300
   H(HETATM    6  H01 UNK     1)   0.85540
   H(HETATM    7  H02 UNK     1)   0.85348
   H(HETATM    8  H03 UNK     1)   0.85282
   H(HETATM    9  H04 UNK     1)   0.85765
   H(HETATM   10  H07 UNK     1)   0.87216
   H(HETATM   11  H08 UNK     1)   0.87426
   H(HETATM   12  H09 UNK     1)   0.87077
   H(HETATM   13  H10 UNK     1)   0.86667
   H(HETATM   14  H11 UNK     1)   0.87279
   H(HETATM   15  H12 UNK     1)   0.87613
   H(HETATM   16  H14 UNK     1)   0.85265
   H(HETATM   17  H15 UNK     1)   0.85318

 **********************
 *                    *
 * JOB ENDED NORMALLY *
 *                    *
 **********************



 TOTAL JOB TIME:             0.23 SECONDS

 == MOPAC DONE ==
