 Entering Gaussian System, Link 0=g16
 Initial command:
 /Applications/g16/l1.exe "/var/folders/hc/gtglrcdn25lc_0x4jfkqf1nh0000gn/T/Gau-29141.inp" -scrdir="/var/folders/hc/gtglrcdn25lc_0x4jfkqf1nh0000gn/T/"
 Entering Link 1 = /Applications/g16/l1.exe PID=     29142.
  
 Copyright (c) 1988,1990,1992,1993,1995,1998,2003,2009,2016,
            Gaussian, Inc.  All Rights Reserved.
  
 This is part of the Gaussian(R) 16 program.  It is based on
 the Gaussian(R) 09 system (copyright 2009, Gaussian, Inc.),
 the Gaussian(R) 03 system (copyright 2003, Gaussian, Inc.),
 the Gaussian(R) 98 system (copyright 1998, Gaussian, Inc.),
 the Gaussian(R) 94 system (copyright 1995, Gaussian, Inc.),
 the Gaussian 92(TM) system (copyright 1992, Gaussian, Inc.),
 the Gaussian 90(TM) system (copyright 1990, Gaussian, Inc.),
 the Gaussian 88(TM) system (copyright 1988, Gaussian, Inc.),
 the Gaussian 86(TM) system (copyright 1986, Carnegie Mellon
 University), and the Gaussian 82(TM) system (copyright 1983,
 Carnegie Mellon University). Gaussian is a federally registered
 trademark of Gaussian, Inc.
  
 This software contains proprietary and confidential information,
 including trade secrets, belonging to Gaussian, Inc.
  
 This software is provided under written license and may be
 used, copied, transmitted, or stored only in accord with that
 written license.
  
 The following legend is applicable only to US Government
 contracts under FAR:
  
                    RESTRICTED RIGHTS LEGEND
  
 Use, reproduction and disclosure by the US Government is
 subject to restrictions as set forth in subparagraphs (a)
 and (c) of the Commercial Computer Software - Restricted
 Rights clause in FAR 52.227-19.
  
 Gaussian, Inc.
 340 Quinnipiac St., Bldg. 40, Wallingford CT 06492
  
  
 ---------------------------------------------------------------
 Warning -- This program may not be used in any manner that
 competes with the business of Gaussian, Inc. or will provide
 assistance to any competitor of Gaussian, Inc.  The licensee
 of this program is prohibited from giving any competitor of
 Gaussian, Inc. access to this program.  By using this program,
 the user acknowledges that Gaussian, Inc. is engaged in the
 business of creating and licensing software in the field of
 computational chemistry and represents and warrants to the
 licensee that it is not a competitor of Gaussian, Inc. and that
 it will not use this program in any manner prohibited above.
 ---------------------------------------------------------------
  

 Cite this work as:
 Gaussian 16, Revision A.03,
 M. J. Frisch, G. W. Trucks, H. B. Schlegel, G. E. Scuseria, 
 M. A. Robb, J. R. Cheeseman, G. Scalmani, V. Barone, 
 G. A. Petersson, H. Nakatsuji, X. Li, M. Caricato, A. V. Marenich, 
 J. Bloino, B. G. Janesko, R. Gomperts, B. Mennucci, H. P. Hratchian, 
 J. V. Ortiz, A. F. Izmaylov, J. L. Sonnenberg, D. Williams-Young, 
 F. Ding, F. Lipparini, F. Egidi, J. Goings, B. Peng, A. Petrone, 
 T. Henderson, D. Ranasinghe, V. G. Zakrzewski, J. Gao, N. Rega, 
 G. Zheng, W. Liang, M. Hada, M. Ehara, K. Toyota, R. Fukuda, 
 J. Hasegawa, M. Ishida, T. Nakajima, Y. Honda, O. Kitao, H. Nakai, 
 T. Vreven, K. Throssell, J. A. Montgomery, Jr., J. E. Peralta, 
 F. Ogliaro, M. J. Bearpark, J. J. Heyd, E. N. Brothers, K. N. Kudin, 
 V. N. Staroverov, T. A. Keith, R. Kobayashi, J. Normand, 
 K. Raghavachari, A. P. Rendell, J. C. Burant, S. S. Iyengar, 
 J. Tomasi, M. Cossi, J. M. Millam, M. Klene, C. Adamo, R. Cammi, 
 J. W. Ochterski, R. L. Martin, K. Morokuma, O. Farkas, 
 J. B. Foresman, and D. J. Fox, Gaussian, Inc., Wallingford CT, 2016.
 
 ******************************************
 Gaussian 16:  EM64M-G16RevA.03 25-Dec-2016
                22-Sep-2018 
 ******************************************
 %mem=1GB
 %nprocshared=4
 Will use up to    4 processors via shared memory.
 %chk=pentane_22.chk
 --------------------------------------------
 # opt=(maxcycles=160) M062X/6-31G(d) emp=GD3
 --------------------------------------------
 1/6=160,18=20,19=15,26=3,38=1/1,3;
 2/9=110,12=2,17=6,18=5,40=1/2;
 3/5=1,6=6,7=1,11=2,25=1,30=1,71=1,74=-55,124=31/1,2,3;
 4//1;
 5/5=2,38=5/2;
 6/7=2,8=2,9=2,10=2,28=1/1;
 7//1,2,3,16;
 1/6=160,18=20,19=15,26=3/3(2);
 2/9=110/2;
 99//99;
 2/9=110/2;
 3/5=1,6=6,7=1,11=2,25=1,30=1,71=1,74=-55,124=31/1,2,3;
 4/5=5,16=3,69=1/1;
 5/5=2,38=5/2;
 7//1,2,3,16;
 1/6=160,18=20,19=15,26=3/3(-5);
 2/9=110/2;
 6/7=2,8=2,9=2,10=2,19=2,28=1/1;
 99/9=1/99;
 ----------------------------
 Generated by prepare_file.py
 ----------------------------
 Symbolic Z-matrix:
 Charge =  0 Multiplicity = 1
 C                     0.        0.        0. 
 C                     1.171     0.975    -0.22 
 C                     1.752     1.396     1.143 
 C                     3.279     1.554     1.023 
 C                     3.93      0.164     0.889 
 H                    -0.785     0.244    -0.653 
 H                     0.322    -0.981    -0.19 
 H                    -0.335     0.073     0.993 
 H                     4.972     0.272     0.809 
 H                     0.828     1.825    -0.731 
 H                     1.917     0.503    -0.787 
 H                     1.532     0.661     1.86 
 H                     1.329     2.31      1.438 
 H                     3.651     2.034     1.878 
 H                     3.505     2.128     0.173 
 H                     3.561    -0.315     0.031 
 H                     3.703    -0.412     1.738 
 

 GradGradGradGradGradGradGradGradGradGradGradGradGradGradGradGradGradGrad
 Berny optimization.
 Initialization pass.
                           ----------------------------
                           !    Initial Parameters    !
                           ! (Angstroms and Degrees)  !
 --------------------------                            --------------------------
 ! Name  Definition              Value          Derivative Info.                !
 --------------------------------------------------------------------------------
 ! R1    R(1,2)                  1.5396         estimate D2E/DX2                !
 ! R2    R(1,6)                  1.0498         estimate D2E/DX2                !
 ! R3    R(1,7)                  1.0498         estimate D2E/DX2                !
 ! R4    R(1,8)                  1.0505         estimate D2E/DX2                !
 ! R5    R(2,3)                  1.5403         estimate D2E/DX2                !
 ! R6    R(2,10)                 1.0494         estimate D2E/DX2                !
 ! R7    R(2,11)                 1.0492         estimate D2E/DX2                !
 ! R8    R(3,4)                  1.5398         estimate D2E/DX2                !
 ! R9    R(3,12)                 1.0501         estimate D2E/DX2                !
 ! R10   R(3,13)                 1.0495         estimate D2E/DX2                !
 ! R11   R(4,5)                  1.5407         estimate D2E/DX2                !
 ! R12   R(4,14)                 1.0487         estimate D2E/DX2                !
 ! R13   R(4,15)                 1.0503         estimate D2E/DX2                !
 ! R14   R(5,9)                  1.0506         estimate D2E/DX2                !
 ! R15   R(5,16)                 1.0497         estimate D2E/DX2                !
 ! R16   R(5,17)                 1.0508         estimate D2E/DX2                !
 ! A1    A(2,1,6)              109.4301         estimate D2E/DX2                !
 ! A2    A(2,1,7)              109.428          estimate D2E/DX2                !
 ! A3    A(2,1,8)              109.4882         estimate D2E/DX2                !
 ! A4    A(6,1,7)              109.5086         estimate D2E/DX2                !
 ! A5    A(6,1,8)              109.472          estimate D2E/DX2                !
 ! A6    A(7,1,8)              109.5003         estimate D2E/DX2                !
 ! A7    A(1,2,3)              109.4839         estimate D2E/DX2                !
 ! A8    A(1,2,10)             109.5077         estimate D2E/DX2                !
 ! A9    A(1,2,11)             109.459          estimate D2E/DX2                !
 ! A10   A(3,2,10)             109.438          estimate D2E/DX2                !
 ! A11   A(3,2,11)             109.4492         estimate D2E/DX2                !
 ! A12   A(10,2,11)            109.4895         estimate D2E/DX2                !
 ! A13   A(2,3,4)              109.4593         estimate D2E/DX2                !
 ! A14   A(2,3,12)             109.5033         estimate D2E/DX2                !
 ! A15   A(2,3,13)             109.5572         estimate D2E/DX2                !
 ! A16   A(4,3,12)             109.438          estimate D2E/DX2                !
 ! A17   A(4,3,13)             109.4053         estimate D2E/DX2                !
 ! A18   A(12,3,13)            109.4641         estimate D2E/DX2                !
 ! A19   A(3,4,5)              109.4638         estimate D2E/DX2                !
 ! A20   A(3,4,14)             109.5841         estimate D2E/DX2                !
 ! A21   A(3,4,15)             109.423          estimate D2E/DX2                !
 ! A22   A(5,4,14)             109.5088         estimate D2E/DX2                !
 ! A23   A(5,4,15)             109.3752         estimate D2E/DX2                !
 ! A24   A(14,4,15)            109.472          estimate D2E/DX2                !
 ! A25   A(4,5,9)              109.4472         estimate D2E/DX2                !
 ! A26   A(4,5,16)             109.5271         estimate D2E/DX2                !
 ! A27   A(4,5,17)             109.4505         estimate D2E/DX2                !
 ! A28   A(9,5,16)             109.4707         estimate D2E/DX2                !
 ! A29   A(9,5,17)             109.3982         estimate D2E/DX2                !
 ! A30   A(16,5,17)            109.5335         estimate D2E/DX2                !
 ! D1    D(6,1,2,3)            137.7376         estimate D2E/DX2                !
 ! D2    D(6,1,2,10)            17.7482         estimate D2E/DX2                !
 ! D3    D(6,1,2,11)          -102.2891         estimate D2E/DX2                !
 ! D4    D(7,1,2,3)           -102.2681         estimate D2E/DX2                !
 ! D5    D(7,1,2,10)           137.7425         estimate D2E/DX2                !
 ! D6    D(7,1,2,11)            17.7052         estimate D2E/DX2                !
 ! D7    D(8,1,2,3)             17.7515         estimate D2E/DX2                !
 ! D8    D(8,1,2,10)          -102.2379         estimate D2E/DX2                !
 ! D9    D(8,1,2,11)           137.7248         estimate D2E/DX2                !
 ! D10   D(1,2,3,4)            144.0157         estimate D2E/DX2                !
 ! D11   D(1,2,3,12)            24.0441         estimate D2E/DX2                !
 ! D12   D(1,2,3,13)           -96.0197         estimate D2E/DX2                !
 ! D13   D(10,2,3,4)           -95.9523         estimate D2E/DX2                !
 ! D14   D(10,2,3,12)          144.0761         estimate D2E/DX2                !
 ! D15   D(10,2,3,13)           24.0124         estimate D2E/DX2                !
 ! D16   D(11,2,3,4)            24.0363         estimate D2E/DX2                !
 ! D17   D(11,2,3,12)          -95.9353         estimate D2E/DX2                !
 ! D18   D(11,2,3,13)          144.001          estimate D2E/DX2                !
 ! D19   D(2,3,4,5)            -71.969          estimate D2E/DX2                !
 ! D20   D(2,3,4,14)           167.9201         estimate D2E/DX2                !
 ! D21   D(2,3,4,15)            47.8795         estimate D2E/DX2                !
 ! D22   D(12,3,4,5)            48.0426         estimate D2E/DX2                !
 ! D23   D(12,3,4,14)          -72.0683         estimate D2E/DX2                !
 ! D24   D(12,3,4,15)          167.8911         estimate D2E/DX2                !
 ! D25   D(13,3,4,5)           167.9733         estimate D2E/DX2                !
 ! D26   D(13,3,4,14)           47.8624         estimate D2E/DX2                !
 ! D27   D(13,3,4,15)          -72.1782         estimate D2E/DX2                !
 ! D28   D(3,4,5,9)           -179.8921         estimate D2E/DX2                !
 ! D29   D(3,4,5,16)            60.089          estimate D2E/DX2                !
 ! D30   D(3,4,5,17)           -60.0088         estimate D2E/DX2                !
 ! D31   D(14,4,5,9)           -59.7351         estimate D2E/DX2                !
 ! D32   D(14,4,5,16)         -179.7541         estimate D2E/DX2                !
 ! D33   D(14,4,5,17)           60.1481         estimate D2E/DX2                !
 ! D34   D(15,4,5,9)            60.2301         estimate D2E/DX2                !
 ! D35   D(15,4,5,16)          -59.7888         estimate D2E/DX2                !
 ! D36   D(15,4,5,17)         -179.8866         estimate D2E/DX2                !
 --------------------------------------------------------------------------------
 Trust Radius=3.00D-01 FncErr=1.00D-07 GrdErr=1.00D-06 EigMax=2.50D+02 EigMin=1.00D-04
 Number of steps in this run=    102 maximum allowed number of steps=    102.
 GradGradGradGradGradGradGradGradGradGradGradGradGradGradGradGradGradGrad

                          Input orientation:                          
 ---------------------------------------------------------------------
 Center     Atomic      Atomic             Coordinates (Angstroms)
 Number     Number       Type             X           Y           Z
 ---------------------------------------------------------------------
      1          6           0        0.000000    0.000000    0.000000
      2          6           0        1.171000    0.975000   -0.220000
      3          6           0        1.752000    1.396000    1.143000
      4          6           0        3.279000    1.554000    1.023000
      5          6           0        3.930000    0.164000    0.889000
      6          1           0       -0.785000    0.244000   -0.653000
      7          1           0        0.322000   -0.981000   -0.190000
      8          1           0       -0.335000    0.073000    0.993000
      9          1           0        4.972000    0.272000    0.809000
     10          1           0        0.828000    1.825000   -0.731000
     11          1           0        1.917000    0.503000   -0.787000
     12          1           0        1.532000    0.661000    1.860000
     13          1           0        1.329000    2.310000    1.438000
     14          1           0        3.651000    2.034000    1.878000
     15          1           0        3.505000    2.128000    0.173000
     16          1           0        3.561000   -0.315000    0.031000
     17          1           0        3.703000   -0.412000    1.738000
 ---------------------------------------------------------------------
                    Distance matrix (angstroms):
                    1          2          3          4          5
     1  C    0.000000
     2  C    1.539567   0.000000
     3  C    2.514909   1.540315   0.000000
     4  C    3.770051   2.514747   1.539835   0.000000
     5  C    4.032632   3.082156   2.515159   1.540733   0.000000
     6  H    1.049843   2.132554   3.314979   4.587066   4.961390
     7  H    1.049831   2.132519   3.077648   4.079392   3.936106
     8  H    1.050525   2.133778   2.475560   3.905798   4.267238
     9  H    5.044725   4.000081   3.426855   2.134378   1.050632
    10  H    2.133207   1.049414   2.133001   3.026113   3.873722
    11  H    2.132432   1.049185   2.132973   2.497147   2.641224
    12  H    2.498709   2.134319   1.050102   2.133079   2.634436
    13  H    3.028231   2.134515   1.049452   2.132196   3.416419
    14  H    4.581904   3.416648   2.133886   1.048718   2.133744
    15  H    4.104064   2.632758   2.133010   1.050263   2.133208
    16  H    3.575039   2.727490   2.727003   2.134654   1.049650
    17  H    4.111277   3.488346   2.725672   2.134516   1.050764
                    6          7          8          9         10
     6  H    0.000000
     7  H    1.714772   0.000000
     8  H    1.714951   1.715242   0.000000
     9  H    5.939804   4.918385   5.313916   0.000000
    10  H    2.259959   2.902129   2.719237   4.685738   0.000000
    11  H    2.717690   2.258913   2.902551   3.454505   1.713692
    12  H    3.443479   2.891844   2.140823   3.617944   2.926396
    13  H    3.620723   3.807245   2.823312   4.221437   2.278330
    14  H    5.411853   4.944602   4.529563   2.447947   3.849661
    15  H    4.757713   4.464206   4.431820   2.449759   2.841717
    16  H    4.434868   3.314139   4.031725   1.714869   3.553805
    17  H    5.127315   3.933460   4.134694   1.715010   4.400654
                   11         12         13         14         15
    11  H    0.000000
    12  H    2.679515   0.000000
    13  H    2.926024   1.714204   0.000000
    14  H    3.528873   2.524998   2.379382   0.000000
    15  H    2.466570   2.981742   2.523554   1.713819   0.000000
    16  H    2.010220   2.900803   3.721841   2.989533   2.447764
    17  H    3.225313   2.424759   3.624246   2.450555   2.989988
                   16         17
    16  H    0.000000
    17  H    1.715640   0.000000
 Stoichiometry    C5H12
 Framework group  C1[X(C5H12)]
 Deg. of freedom    45
 Full point group                 C1      NOp   1
 Largest Abelian subgroup         C1      NOp   1
 Largest concise Abelian subgroup C1      NOp   1
                         Standard orientation:                         
 ---------------------------------------------------------------------
 Center     Atomic      Atomic             Coordinates (Angstroms)
 Number     Number       Type             X           Y           Z
 ---------------------------------------------------------------------
      1          6           0       -2.183736    0.460258   -0.205230
      2          6           0       -1.007296   -0.145653    0.581616
      3          6           0       -0.011891   -0.792753   -0.399711
      4          6           0        1.424436   -0.584697    0.114846
      5          6           0        1.822880    0.893471   -0.058702
      6          1           0       -3.083511    0.245088    0.291033
      7          1           0       -2.060260    1.500667   -0.271926
      8          1           0       -2.209065    0.047502   -1.170940
      9          1           0        2.803569    1.034754    0.290751
     10          1           0       -1.367759   -0.874657    1.244857
     11          1           0       -0.522297    0.610968    1.122992
     12          1           0       -0.112240   -0.347466   -1.345419
     13          1           0       -0.210067   -1.820617   -0.474357
     14          1           0        2.084198   -1.191494   -0.429508
     15          1           0        1.471527   -0.841116    1.132237
     16          1           0        1.165243    1.500791    0.489423
     17          1           0        1.774294    1.151829   -1.076050
 ---------------------------------------------------------------------
 Rotational constants (GHZ):           9.3842594           2.6638013           2.3903762
 Standard basis: 6-31G(d) (6D, 7F)
 There are    99 symmetry adapted cartesian basis functions of A   symmetry.
 There are    99 symmetry adapted basis functions of A   symmetry.
    99 basis functions,   188 primitive gaussians,    99 cartesian basis functions
    21 alpha electrons       21 beta electrons
       nuclear repulsion energy       192.0370731091 Hartrees.
 NAtoms=   17 NActive=   17 NUniq=   17 SFac= 1.00D+00 NAtFMM=   60 NAOKFM=F Big=F
 Integral buffers will be    131072 words long.
 Raffenetti 2 integral format.
 Two-electron integral symmetry is turned on.
 Nuclear repulsion after empirical dispersion term =      192.0367805829 Hartrees.
 One-electron integrals computed using PRISM.
 NBasis=    99 RedAO= T EigKep=  4.27D-03  NBF=    99
 NBsUse=    99 1.00D-06 EigRej= -1.00D+00 NBFU=    99
 ExpMin= 1.61D-01 ExpMax= 3.05D+03 ExpMxC= 4.57D+02 IAcc=3 IRadAn=         5 AccDes= 0.00D+00
 Harris functional with IExCor= 1009 and IRadAn=       5 diagonalized for initial guess.
 HarFok:  IExCor= 1009 AccDes= 0.00D+00 IRadAn=         5 IDoV= 1 UseB2=F ITyADJ=14
 ICtDFT=  3500011 ScaDFX=  1.000000  1.000000  1.000000  1.000000
 FoFCou: FMM=F IPFlag=           0 FMFlag=      100000 FMFlg1=           0
         NFxFlg=           0 DoJE=T BraDBF=F KetDBF=T FulRan=T
         wScrn=  0.000000 ICntrl=       500 IOpCl=  0 I1Cent=   200000004 NGrid=           0
         NMat0=    1 NMatS0=      1 NMatT0=    0 NMatD0=    1 NMtDS0=    0 NMtDT0=    0
 Petite list used in FoFCou.
 Keep R1 ints in memory in canonical form, NReq=15944043.
 Requested convergence on RMS density matrix=1.00D-08 within 128 cycles.
 Requested convergence on MAX density matrix=1.00D-06.
 Requested convergence on             energy=1.00D-06.
 No special actions if energy rises.
 Integral accuracy reduced to 1.0D-05 until final iterations.
 Initial convergence to 1.0D-05 achieved.  Increase integral accuracy.
 SCF Done:  E(RM062X) =  -197.621841280     A.U. after   12 cycles
            NFock= 12  Conv=0.31D-08     -V/T= 2.0052

 **********************************************************************

            Population analysis using the SCF density.

 **********************************************************************

 Orbital symmetries:
       Occupied  (A) (A) (A) (A) (A) (A) (A) (A) (A) (A) (A) (A)
                 (A) (A) (A) (A) (A) (A) (A) (A) (A)
       Virtual   (A) (A) (A) (A) (A) (A) (A) (A) (A) (A) (A) (A)
                 (A) (A) (A) (A) (A) (A) (A) (A) (A) (A) (A) (A)
                 (A) (A) (A) (A) (A) (A) (A) (A) (A) (A) (A) (A)
                 (A) (A) (A) (A) (A) (A) (A) (A) (A) (A) (A) (A)
                 (A) (A) (A) (A) (A) (A) (A) (A) (A) (A) (A) (A)
                 (A) (A) (A) (A) (A) (A) (A) (A) (A) (A) (A) (A)
                 (A) (A) (A) (A) (A) (A)
 The electronic state is 1-A.
 Alpha  occ. eigenvalues --  -10.52088 -10.51951 -10.51851 -10.51231 -10.51029
 Alpha  occ. eigenvalues --   -0.90357  -0.84350  -0.76777  -0.69664  -0.65756
 Alpha  occ. eigenvalues --   -0.54555  -0.52182  -0.49772  -0.48402  -0.45444
 Alpha  occ. eigenvalues --   -0.43163  -0.41320  -0.40653  -0.38693  -0.37181
 Alpha  occ. eigenvalues --   -0.35648
 Alpha virt. eigenvalues --    0.14060   0.16847   0.17074   0.18495   0.21483
 Alpha virt. eigenvalues --    0.21803   0.23225   0.24107   0.24618   0.25762
 Alpha virt. eigenvalues --    0.27340   0.27743   0.28347   0.31733   0.34542
 Alpha virt. eigenvalues --    0.36288   0.54631   0.57078   0.57360   0.59160
 Alpha virt. eigenvalues --    0.61308   0.63252   0.67622   0.70987   0.72314
 Alpha virt. eigenvalues --    0.73955   0.75839   0.80202   0.82602   0.90430
 Alpha virt. eigenvalues --    0.92574   0.96876   0.97775   0.99505   1.00521
 Alpha virt. eigenvalues --    1.01837   1.02840   1.05689   1.07416   1.07823
 Alpha virt. eigenvalues --    1.09223   1.09478   1.11434   1.11703   1.23355
 Alpha virt. eigenvalues --    1.45767   1.46712   1.53351   1.61367   1.66294
 Alpha virt. eigenvalues --    1.73330   1.80102   1.86502   1.91740   1.95873
 Alpha virt. eigenvalues --    2.01292   2.03866   2.08287   2.12317   2.15948
 Alpha virt. eigenvalues --    2.22472   2.27168   2.32919   2.39950   2.40685
 Alpha virt. eigenvalues --    2.46184   2.50004   2.50725   2.55132   2.61107
 Alpha virt. eigenvalues --    2.65671   2.70881   2.79883   4.18620   4.25761
 Alpha virt. eigenvalues --    4.39697   4.49177   4.59453
          Condensed to atoms (all electrons):
               1          2          3          4          5          6
     1  C    5.100469   0.349586  -0.047427   0.005040   0.000082   0.387410
     2  C    0.349586   5.046962   0.371006  -0.046252  -0.010748  -0.033270
     3  C   -0.047427   0.371006   5.051841   0.373185  -0.056144   0.004459
     4  C    0.005040  -0.046252   0.373185   5.015023   0.375809  -0.000145
     5  C    0.000082  -0.010748  -0.056144   0.375809   5.093647  -0.000014
     6  H    0.387410  -0.033270   0.004459  -0.000145  -0.000014   0.540269
     7  H    0.392172  -0.033171   0.001051  -0.000356   0.000289  -0.026824
     8  H    0.397545  -0.043870  -0.011307   0.000535  -0.000045  -0.028683
     9  H    0.000009   0.000171   0.005152  -0.033173   0.388997  -0.000000
    10  H   -0.037843   0.395271  -0.033699  -0.000391   0.000320  -0.008373
    11  H   -0.040276   0.401691  -0.052589  -0.005579   0.000180   0.002210
    12  H   -0.008573  -0.050823   0.398296  -0.041679  -0.007302   0.000353
    13  H    0.000653  -0.034195   0.387432  -0.033448   0.005195  -0.000254
    14  H   -0.000214   0.005516  -0.036710   0.389281  -0.038049   0.000004
    15  H    0.000212  -0.006770  -0.040685   0.392317  -0.040236   0.000002
    16  H   -0.000735   0.002034  -0.005101  -0.039602   0.390070   0.000021
    17  H    0.000026  -0.000219  -0.005737  -0.036936   0.390250   0.000001
               7          8          9         10         11         12
     1  C    0.392172   0.397545   0.000009  -0.037843  -0.040276  -0.008573
     2  C   -0.033171  -0.043870   0.000171   0.395271   0.401691  -0.050823
     3  C    0.001051  -0.011307   0.005152  -0.033699  -0.052589   0.398296
     4  C   -0.000356   0.000535  -0.033173  -0.000391  -0.005579  -0.041679
     5  C    0.000289  -0.000045   0.388997   0.000320   0.000180  -0.007302
     6  H   -0.026824  -0.028683  -0.000000  -0.008373   0.002210   0.000353
     7  H    0.534938  -0.029572  -0.000004   0.004425  -0.009684   0.001558
     8  H   -0.029572   0.540047  -0.000000   0.001611   0.004653   0.003066
     9  H   -0.000004  -0.000000   0.535698  -0.000007  -0.000316   0.000098
    10  H    0.004425   0.001611  -0.000007   0.551759  -0.032550   0.004949
    11  H   -0.009684   0.004653  -0.000316  -0.032550   0.563219   0.000852
    12  H    0.001558   0.003066   0.000098   0.004949   0.000852   0.571928
    13  H   -0.000109   0.001750  -0.000182  -0.008532   0.005123  -0.033778
    14  H    0.000003  -0.000008  -0.002777  -0.000162   0.000397  -0.001729
    15  H    0.000010   0.000009  -0.002727   0.001765   0.000214   0.005713
    16  H    0.000228  -0.000007  -0.027651   0.000085   0.005464  -0.000090
    17  H   -0.000006   0.000004  -0.028133  -0.000004   0.000087   0.005705
              13         14         15         16         17
     1  C    0.000653  -0.000214   0.000212  -0.000735   0.000026
     2  C   -0.034195   0.005516  -0.006770   0.002034  -0.000219
     3  C    0.387432  -0.036710  -0.040685  -0.005101  -0.005737
     4  C   -0.033448   0.389281   0.392317  -0.039602  -0.036936
     5  C    0.005195  -0.038049  -0.040236   0.390070   0.390250
     6  H   -0.000254   0.000004   0.000002   0.000021   0.000001
     7  H   -0.000109   0.000003   0.000010   0.000228  -0.000006
     8  H    0.001750  -0.000008   0.000009  -0.000007   0.000004
     9  H   -0.000182  -0.002777  -0.002727  -0.027651  -0.028133
    10  H   -0.008532  -0.000162   0.001765   0.000085  -0.000004
    11  H    0.005123   0.000397   0.000214   0.005464   0.000087
    12  H   -0.033778  -0.001729   0.005713  -0.000090   0.005705
    13  H    0.557098  -0.004017  -0.001471  -0.000019   0.000077
    14  H   -0.004017   0.566641  -0.034414   0.005387  -0.004243
    15  H   -0.001471  -0.034414   0.569427  -0.004516   0.005410
    16  H   -0.000019   0.005387  -0.004516   0.542330  -0.030076
    17  H    0.000077  -0.004243   0.005410  -0.030076   0.542212
 Mulliken charges:
               1
     1  C   -0.498136
     2  C   -0.312919
     3  C   -0.303023
     4  C   -0.313628
     5  C   -0.492300
     6  H    0.162833
     7  H    0.165050
     8  H    0.164272
     9  H    0.164844
    10  H    0.161376
    11  H    0.156904
    12  H    0.151456
    13  H    0.158677
    14  H    0.155094
    15  H    0.155741
    16  H    0.162178
    17  H    0.161582
 Sum of Mulliken charges =  -0.00000
 Mulliken charges with hydrogens summed into heavy atoms:
               1
     1  C   -0.005982
     2  C    0.005360
     3  C    0.007110
     4  C   -0.002793
     5  C   -0.003695
 Electronic spatial extent (au):  <R**2>=            594.4732
 Charge=             -0.0000 electrons
 Dipole moment (field-independent basis, Debye):
    X=              0.0209    Y=             -0.0954    Z=              0.0544  Tot=              0.1118
 Quadrupole moment (field-independent basis, Debye-Ang):
   XX=            -35.0295   YY=            -34.4709   ZZ=            -34.2923
   XY=              0.1647   XZ=             -0.3052   YZ=              0.0215
 Traceless Quadrupole moment (field-independent basis, Debye-Ang):
   XX=             -0.4319   YY=              0.1267   ZZ=              0.3053
   XY=              0.1647   XZ=             -0.3052   YZ=              0.0215
 Octapole moment (field-independent basis, Debye-Ang**2):
  XXX=              1.7779  YYY=             -0.9452  ZZZ=             -0.6211  XYY=             -1.0295
  XXY=             -1.5484  XXZ=              1.3030  XZZ=              0.3071  YZZ=             -0.1068
  YYZ=              0.4777  XYZ=              0.3545
 Hexadecapole moment (field-independent basis, Debye-Ang**3):
 XXXX=           -557.9105 YYYY=           -156.8601 ZZZZ=            -93.1380 XXXY=              3.6828
 XXXZ=             -4.1015 YYYX=             -2.1271 YYYZ=              0.5867 ZZZX=              0.0717
 ZZZY=             -1.1939 XXYY=           -121.9078 XXZZ=           -108.1367 YYZZ=            -41.9541
 XXYZ=              0.8894 YYXZ=             -1.0101 ZZXY=              1.0022
 N-N= 1.920367805829D+02 E-N=-8.407152211294D+02  KE= 1.966020438184D+02
 Calling FoFJK, ICntrl=      2127 FMM=F ISym2X=0 I1Cent= 0 IOpClX= 0 NMat=1 NMatS=1 NMatT=0.
 ***** Axes restored to original set *****
 -------------------------------------------------------------------
 Center     Atomic                   Forces (Hartrees/Bohr)
 Number     Number              X              Y              Z
 -------------------------------------------------------------------
      1        6           0.025000175    0.024414439   -0.012710006
      2        6          -0.020753264   -0.014110749    0.045153939
      3        6           0.033884687    0.000827446   -0.043820725
      4        6          -0.023679226   -0.042862103    0.005670200
      5        6          -0.012017433    0.040611950    0.004334423
      6        1          -0.027300849    0.001979244   -0.019096421
      7        1           0.006209159   -0.032255493   -0.003559530
      8        1          -0.014206924    0.000337595    0.028499300
      9        1           0.032550862   -0.000794184   -0.003251493
     10        1          -0.007038412    0.027101211   -0.018153589
     11        1           0.021713698   -0.011642646   -0.021251867
     12        1          -0.005918193   -0.021863741    0.025087575
     13        1          -0.016593475    0.027639628    0.012359993
     14        1           0.014750455    0.017455412    0.026655857
     15        1           0.007892836    0.021163405   -0.025598075
     16        1          -0.008619294   -0.018391804   -0.025746745
     17        1          -0.005874802   -0.019609608    0.025427162
 -------------------------------------------------------------------
 Cartesian Forces:  Max     0.045153939 RMS     0.022006902

 GradGradGradGradGradGradGradGradGradGradGradGradGradGradGradGradGradGrad
 Berny optimization.
 FormGI is forming the generalized inverse of G from B-inverse, IUseBI=4.
 Internal  Forces:  Max     0.034953181 RMS     0.013280033
 Search for a local minimum.
 Step number   1 out of a maximum of  102
 All quantities printed in internal units (Hartrees-Bohrs-Radians)
 Mixed Optimization -- RFO/linear search
 Second derivative matrix not updated -- first step.
 ITU=  0
     Eigenvalues ---    0.00230   0.00233   0.00239   0.00243   0.03839
     Eigenvalues ---    0.03840   0.03840   0.04895   0.04895   0.04897
     Eigenvalues ---    0.05708   0.05721   0.05725   0.05730   0.07652
     Eigenvalues ---    0.07653   0.07657   0.11699   0.11699   0.11702
     Eigenvalues ---    0.16000   0.16000   0.16000   0.16000   0.16000
     Eigenvalues ---    0.16000   0.21947   0.21948   0.21949   0.28454
     Eigenvalues ---    0.28491   0.28534   0.28557   0.39771   0.39789
     Eigenvalues ---    0.39804   0.39840   0.39863   0.39898   0.39900
     Eigenvalues ---    0.39925   0.39953   0.39958   0.39990   0.40055
 RFO step:  Lambda=-3.69179136D-02 EMin= 2.30000000D-03
 Linear search not attempted -- first point.
 Maximum step size (   0.300) exceeded in Quadratic search.
    -- Step size scaled by   0.987
 Iteration  1 RMS(Cart)=  0.09096256 RMS(Int)=  0.00154014
 Iteration  2 RMS(Cart)=  0.00189685 RMS(Int)=  0.00021606
 Iteration  3 RMS(Cart)=  0.00000310 RMS(Int)=  0.00021604
 Iteration  4 RMS(Cart)=  0.00000000 RMS(Int)=  0.00021604
 Variable       Old X    -DE/DX   Delta X   Delta X   Delta X     New X
                                 (Linear)    (Quad)   (Total)
    R1        2.90936   0.01035   0.00000   0.03167   0.03167   2.94103
    R2        1.98392   0.03275   0.00000   0.07415   0.07415   2.05806
    R3        1.98389   0.03269   0.00000   0.07400   0.07400   2.05790
    R4        1.98520   0.03149   0.00000   0.07145   0.07145   2.05666
    R5        2.91077   0.00831   0.00000   0.02548   0.02548   2.93625
    R6        1.98311   0.03309   0.00000   0.07481   0.07481   2.05792
    R7        1.98267   0.03216   0.00000   0.07266   0.07266   2.05533
    R8        2.90987   0.00413   0.00000   0.01264   0.01264   2.92251
    R9        1.98440   0.03367   0.00000   0.07629   0.07629   2.06070
   R10        1.98318   0.03424   0.00000   0.07741   0.07741   2.06059
   R11        2.91156   0.00085   0.00000   0.00260   0.00260   2.91416
   R12        1.98179   0.03495   0.00000   0.07885   0.07885   2.06064
   R13        1.98471   0.03398   0.00000   0.07704   0.07704   2.06175
   R14        1.98541   0.03245   0.00000   0.07365   0.07365   2.05905
   R15        1.98355   0.03247   0.00000   0.07346   0.07346   2.05701
   R16        1.98566   0.03256   0.00000   0.07394   0.07394   2.05960
    A1        1.90992   0.00701   0.00000   0.03582   0.03541   1.94532
    A2        1.90988   0.00422   0.00000   0.02089   0.02059   1.93047
    A3        1.91093   0.00390   0.00000   0.01911   0.01883   1.92976
    A4        1.91129  -0.00540   0.00000  -0.02619  -0.02661   1.88467
    A5        1.91065  -0.00535   0.00000  -0.02636  -0.02673   1.88392
    A6        1.91114  -0.00436   0.00000  -0.02322  -0.02337   1.88777
    A7        1.91085   0.01476   0.00000   0.06545   0.06509   1.97594
    A8        1.91127  -0.00365   0.00000  -0.00964  -0.00980   1.90147
    A9        1.91042  -0.00327   0.00000  -0.00511  -0.00549   1.90493
   A10        1.91005  -0.00406   0.00000  -0.01331  -0.01362   1.89643
   A11        1.91025  -0.00381   0.00000  -0.00968  -0.01024   1.90001
   A12        1.91095   0.00003   0.00000  -0.02769  -0.02805   1.88290
   A13        1.91043   0.01557   0.00000   0.06717   0.06693   1.97735
   A14        1.91119  -0.00225   0.00000   0.00242   0.00223   1.91342
   A15        1.91213  -0.00547   0.00000  -0.02188  -0.02202   1.89011
   A16        1.91005  -0.00543   0.00000  -0.01890  -0.01966   1.89039
   A17        1.90948  -0.00330   0.00000  -0.00890  -0.00888   1.90060
   A18        1.91051   0.00089   0.00000  -0.01992  -0.02030   1.89021
   A19        1.91050   0.01067   0.00000   0.04719   0.04699   1.95750
   A20        1.91260  -0.00147   0.00000  -0.00077  -0.00063   1.91197
   A21        1.90979  -0.00360   0.00000  -0.01051  -0.01097   1.89882
   A22        1.91129  -0.00452   0.00000  -0.02092  -0.02109   1.89020
   A23        1.90896  -0.00116   0.00000   0.00447   0.00424   1.91320
   A24        1.91065   0.00008   0.00000  -0.01943  -0.01958   1.89107
   A25        1.91021   0.00450   0.00000   0.02283   0.02261   1.93283
   A26        1.91161   0.00515   0.00000   0.02611   0.02589   1.93750
   A27        1.91027   0.00133   0.00000   0.00612   0.00603   1.91631
   A28        1.91062  -0.00459   0.00000  -0.02189  -0.02224   1.88839
   A29        1.90936  -0.00304   0.00000  -0.01581  -0.01588   1.89348
   A30        1.91172  -0.00336   0.00000  -0.01737  -0.01746   1.89426
    D1        2.40397   0.00075   0.00000   0.02145   0.02139   2.42536
    D2        0.30976  -0.00109   0.00000   0.00353   0.00350   0.31326
    D3       -1.78528   0.00311   0.00000   0.04651   0.04657  -1.73871
    D4       -1.78492   0.00100   0.00000   0.02404   0.02407  -1.76085
    D5        2.40406  -0.00084   0.00000   0.00613   0.00618   2.41024
    D6        0.30901   0.00336   0.00000   0.04911   0.04925   0.35826
    D7        0.30982   0.00062   0.00000   0.02010   0.02000   0.32982
    D8       -1.78439  -0.00121   0.00000   0.00219   0.00211  -1.78228
    D9        2.40375   0.00299   0.00000   0.04517   0.04518   2.44893
   D10        2.51355   0.00086   0.00000   0.02537   0.02568   2.53923
   D11        0.41965  -0.00065   0.00000   0.00589   0.00574   0.42539
   D12       -1.67586   0.00302   0.00000   0.04229   0.04222  -1.63364
   D13       -1.67468   0.00294   0.00000   0.04547   0.04567  -1.62901
   D14        2.51460   0.00143   0.00000   0.02599   0.02573   2.54034
   D15        0.41910   0.00509   0.00000   0.06239   0.06221   0.48131
   D16        0.41951  -0.00183   0.00000  -0.00248  -0.00216   0.41735
   D17       -1.67439  -0.00334   0.00000  -0.02196  -0.02210  -1.69649
   D18        2.51329   0.00032   0.00000   0.01444   0.01438   2.52767
   D19       -1.25610  -0.00226   0.00000  -0.02776  -0.02751  -1.28361
   D20        2.93076  -0.00239   0.00000  -0.03070  -0.03062   2.90014
   D21        0.83565   0.00062   0.00000   0.00005   0.00017   0.83582
   D22        0.83850   0.00118   0.00000   0.00472   0.00466   0.84316
   D23       -1.25783   0.00105   0.00000   0.00178   0.00155  -1.25627
   D24        2.93025   0.00407   0.00000   0.03253   0.03234   2.96259
   D25        2.93169  -0.00306   0.00000  -0.03660  -0.03649   2.89520
   D26        0.83536  -0.00319   0.00000  -0.03954  -0.03960   0.79576
   D27       -1.25975  -0.00017   0.00000  -0.00879  -0.00881  -1.26856
   D28       -3.13971  -0.00010   0.00000   0.00143   0.00172  -3.13799
   D29        1.04875  -0.00040   0.00000  -0.00175  -0.00161   1.04714
   D30       -1.04735  -0.00026   0.00000  -0.00025  -0.00004  -1.04740
   D31       -1.04257   0.00189   0.00000   0.01665   0.01661  -1.02596
   D32       -3.13730   0.00158   0.00000   0.01347   0.01329  -3.12401
   D33        1.04978   0.00173   0.00000   0.01497   0.01485   1.06464
   D34        1.05121  -0.00148   0.00000  -0.01716  -0.01718   1.03403
   D35       -1.04351  -0.00179   0.00000  -0.02034  -0.02050  -1.06402
   D36       -3.13961  -0.00164   0.00000  -0.01884  -0.01894   3.12463
         Item               Value     Threshold  Converged?
 Maximum Force            0.034953     0.000450     NO 
 RMS     Force            0.013280     0.000300     NO 
 Maximum Displacement     0.290445     0.001800     NO 
 RMS     Displacement     0.090913     0.001200     NO 
 Predicted change in Energy=-2.058409D-02
 GradGradGradGradGradGradGradGradGradGradGradGradGradGradGradGradGradGrad

                          Input orientation:                          
 ---------------------------------------------------------------------
 Center     Atomic      Atomic             Coordinates (Angstroms)
 Number     Number       Type             X           Y           Z
 ---------------------------------------------------------------------
      1          6           0       -0.105439    0.011765   -0.033007
      2          6           0        1.114885    0.959930   -0.217255
      3          6           0        1.776338    1.374911    1.126084
      4          6           0        3.310537    1.542295    1.026328
      5          6           0        4.038009    0.186477    0.923182
      6          1           0       -0.919153    0.273968   -0.707701
      7          1           0        0.177675   -1.020600   -0.232932
      8          1           0       -0.483367    0.068615    0.986019
      9          1           0        5.116015    0.330928    0.857811
     10          1           0        0.788491    1.859321   -0.737344
     11          1           0        1.859297    0.466667   -0.838137
     12          1           0        1.562408    0.623855    1.887188
     13          1           0        1.337946    2.320785    1.445678
     14          1           0        3.679135    2.062203    1.911142
     15          1           0        3.541620    2.149607    0.149905
     16          1           0        3.714697   -0.363814    0.041404
     17          1           0        3.822905   -0.415910    1.805636
 ---------------------------------------------------------------------
                    Distance matrix (angstroms):
                    1          2          3          4          5
     1  C    0.000000
     2  C    1.556328   0.000000
     3  C    2.596679   1.553798   0.000000
     4  C    3.890193   2.589698   1.546524   0.000000
     5  C    4.255935   3.231637   2.562948   1.542108   0.000000
     6  H    1.089079   2.201907   3.441005   4.744027   5.219280
     7  H    1.088991   2.191143   3.184513   4.238985   4.206639
     8  H    1.088336   2.190142   2.613865   4.070266   4.523348
     9  H    5.306505   4.190519   3.509318   2.180724   1.089604
    10  H    2.169946   1.089003   2.163991   3.093827   4.014364
    11  H    2.171487   1.087636   2.165630   2.596017   2.815589
    12  H    2.616012   2.177592   1.090473   2.154198   2.692435
    13  H    3.098620   2.160331   1.090416   2.161716   3.481180
    14  H    4.723030   3.510051   2.170098   1.090442   2.150164
    15  H    4.231414   2.727486   2.160856   1.091029   2.167542
    16  H    3.839275   2.928860   2.820803   2.183271   1.088523
    17  H    4.358371   3.649438   2.803082   2.168965   1.089892
                    6          7          8          9         10
     6  H    0.000000
     7  H    1.761915   0.000000
     8  H    1.760900   1.763295   0.000000
     9  H    6.235168   5.234839   5.606988   0.000000
    10  H    2.330294   2.986883   2.791815   4.858803   0.000000
    11  H    2.788177   2.325100   2.995674   3.674354   1.759621
    12  H    3.607495   3.019376   2.303387   3.711272   3.002248
    13  H    3.731086   3.915204   2.932702   4.310328   2.297920
    14  H    5.585730   5.134292   4.707087   2.484239   3.925744
    15  H    4.914469   4.638200   4.607616   2.507477   2.907094
    16  H    4.737139   3.607929   4.324700   1.764335   3.756522
    17  H    5.411092   4.220084   4.410274   1.768692   4.566300
                   11         12         13         14         15
    11  H    0.000000
    12  H    2.745952   0.000000
    13  H    2.987536   1.767735   0.000000
    14  H    3.662797   2.559288   2.400976   0.000000
    15  H    2.576572   3.043575   2.562129   1.768758   0.000000
    16  H    2.214904   3.002458   3.850715   3.063126   2.521708
    17  H    3.409434   2.489500   3.714040   2.484521   3.066340
                   16         17
    16  H    0.000000
    17  H    1.768315   0.000000
 Stoichiometry    C5H12
 Framework group  C1[X(C5H12)]
 Deg. of freedom    45
 Full point group                 C1      NOp   1
 Largest Abelian subgroup         C1      NOp   1
 Largest concise Abelian subgroup C1      NOp   1
                         Standard orientation:                         
 ---------------------------------------------------------------------
 Center     Atomic      Atomic             Coordinates (Angstroms)
 Number     Number       Type             X           Y           Z
 ---------------------------------------------------------------------
      1          6           0       -2.287168    0.455785   -0.196991
      2          6           0       -1.063596   -0.139706    0.558269
      3          6           0       -0.002371   -0.762852   -0.390299
      4          6           0        1.448732   -0.583546    0.113573
      5          6           0        1.946341    0.866812   -0.050567
      6          1           0       -3.220841    0.228874    0.315708
      7          1           0       -2.200308    1.538587   -0.273793
      8          1           0       -2.350147    0.048232   -1.204170
      9          1           0        2.970566    0.966266    0.307635
     10          1           0       -1.412366   -0.909852    1.244682
     11          1           0       -0.592046    0.643794    1.147096
     12          1           0       -0.080946   -0.306982   -1.377791
     13          1           0       -0.213427   -1.828246   -0.487234
     14          1           0        2.113927   -1.239485   -0.448854
     15          1           0        1.493368   -0.869293    1.165571
     16          1           0        1.321381    1.559642    0.510052
     17          1           0        1.919214    1.149506   -1.102809
 ---------------------------------------------------------------------
 Rotational constants (GHZ):           9.5282282           2.4358323           2.2125161
 Standard basis: 6-31G(d) (6D, 7F)
 There are    99 symmetry adapted cartesian basis functions of A   symmetry.
 There are    99 symmetry adapted basis functions of A   symmetry.
    99 basis functions,   188 primitive gaussians,    99 cartesian basis functions
    21 alpha electrons       21 beta electrons
       nuclear repulsion energy       187.0996633295 Hartrees.
 NAtoms=   17 NActive=   17 NUniq=   17 SFac= 1.00D+00 NAtFMM=   60 NAOKFM=F Big=F
 Integral buffers will be    131072 words long.
 Raffenetti 2 integral format.
 Two-electron integral symmetry is turned on.
 Nuclear repulsion after empirical dispersion term =      187.0993487581 Hartrees.
 One-electron integrals computed using PRISM.
 NBasis=    99 RedAO= T EigKep=  4.64D-03  NBF=    99
 NBsUse=    99 1.00D-06 EigRej= -1.00D+00 NBFU=    99
 Initial guess from the checkpoint file:  "pentane_22.chk"
 B after Tr=    -0.000000   -0.000000   -0.000000
         Rot=    0.999987   -0.002859    0.001151    0.003958 Ang=  -0.57 deg.
 ExpMin= 1.61D-01 ExpMax= 3.05D+03 ExpMxC= 4.57D+02 IAcc=2 IRadAn=         4 AccDes= 0.00D+00
 Harris functional with IExCor= 1009 and IRadAn=       4 diagonalized for initial guess.
 HarFok:  IExCor= 1009 AccDes= 0.00D+00 IRadAn=         4 IDoV= 1 UseB2=F ITyADJ=14
 ICtDFT=  3500011 ScaDFX=  1.000000  1.000000  1.000000  1.000000
 FoFCou: FMM=F IPFlag=           0 FMFlag=      100000 FMFlg1=           0
         NFxFlg=           0 DoJE=T BraDBF=F KetDBF=T FulRan=T
         wScrn=  0.000000 ICntrl=       500 IOpCl=  0 I1Cent=   200000004 NGrid=           0
         NMat0=    1 NMatS0=      1 NMatT0=    0 NMatD0=    1 NMtDS0=    0 NMtDT0=    0
 Petite list used in FoFCou.
 Keep R1 ints in memory in canonical form, NReq=15944043.
 Requested convergence on RMS density matrix=1.00D-08 within 128 cycles.
 Requested convergence on MAX density matrix=1.00D-06.
 Requested convergence on             energy=1.00D-06.
 No special actions if energy rises.
 Integral accuracy reduced to 1.0D-05 until final iterations.
 Initial convergence to 1.0D-05 achieved.  Increase integral accuracy.
 SCF Done:  E(RM062X) =  -197.641201826     A.U. after   11 cycles
            NFock= 11  Conv=0.33D-08     -V/T= 2.0093
 Calling FoFJK, ICntrl=      2127 FMM=F ISym2X=0 I1Cent= 0 IOpClX= 0 NMat=1 NMatS=1 NMatT=0.
 ***** Axes restored to original set *****
 -------------------------------------------------------------------
 Center     Atomic                   Forces (Hartrees/Bohr)
 Number     Number              X              Y              Z
 -------------------------------------------------------------------
      1        6           0.010144661    0.008280631   -0.002955073
      2        6          -0.006665750   -0.005160022    0.014156807
      3        6           0.008300460   -0.000326791   -0.012634698
      4        6          -0.007087175   -0.012779741   -0.000301912
      5        6          -0.004847577    0.011808436    0.000687106
      6        1          -0.001960523   -0.000629002   -0.002057244
      7        1          -0.000161092   -0.003298711    0.001306190
      8        1          -0.002727264    0.000258664    0.003064539
      9        1           0.002776045   -0.000709373   -0.000341806
     10        1           0.001950091    0.002904465   -0.003220630
     11        1           0.002203183   -0.000793547   -0.005188914
     12        1          -0.001581135   -0.002027288    0.004025023
     13        1          -0.002793824    0.001056932    0.004285195
     14        1           0.000905999    0.003662528    0.001395857
     15        1           0.002181184    0.003799793   -0.001611317
     16        1          -0.000611194   -0.003204260   -0.002605197
     17        1          -0.000026090   -0.002842712    0.001996075
 -------------------------------------------------------------------
 Cartesian Forces:  Max     0.014156807 RMS     0.005002496

 GradGradGradGradGradGradGradGradGradGradGradGradGradGradGradGradGradGrad
 Berny optimization.
 Using GEDIIS/GDIIS optimizer.
 FormGI is forming the generalized inverse of G from B-inverse, IUseBI=4.
 Internal  Forces:  Max     0.007037749 RMS     0.002154109
 Search for a local minimum.
 Step number   2 out of a maximum of  102
 All quantities printed in internal units (Hartrees-Bohrs-Radians)
 Mixed Optimization -- RFO/linear search
 Update second derivatives using D2CorX and points    1    2
 DE= -1.94D-02 DEPred=-2.06D-02 R= 9.41D-01
 TightC=F SS=  1.41D+00  RLast= 3.39D-01 DXNew= 5.0454D-01 1.0181D+00
 Trust test= 9.41D-01 RLast= 3.39D-01 DXMaxT set to 5.05D-01
 ITU=  1  0
 Use linear search instead of GDIIS.
     Eigenvalues ---    0.00230   0.00233   0.00240   0.00243   0.03433
     Eigenvalues ---    0.03443   0.03545   0.04774   0.04787   0.04798
     Eigenvalues ---    0.05418   0.05466   0.05508   0.05577   0.08124
     Eigenvalues ---    0.08309   0.08313   0.12082   0.12203   0.12225
     Eigenvalues ---    0.15859   0.16000   0.16000   0.16000   0.16000
     Eigenvalues ---    0.16037   0.21963   0.21978   0.22695   0.28121
     Eigenvalues ---    0.28507   0.28512   0.28688   0.39294   0.39776
     Eigenvalues ---    0.39815   0.39818   0.39850   0.39898   0.39903
     Eigenvalues ---    0.39937   0.39947   0.39956   0.40031   0.40878
 RFO step:  Lambda=-3.90518219D-03 EMin= 2.29995159D-03
 Quartic linear search produced a step of  0.12150.
 Iteration  1 RMS(Cart)=  0.11525354 RMS(Int)=  0.00832278
 Iteration  2 RMS(Cart)=  0.00956037 RMS(Int)=  0.00008104
 Iteration  3 RMS(Cart)=  0.00009120 RMS(Int)=  0.00004670
 Iteration  4 RMS(Cart)=  0.00000001 RMS(Int)=  0.00004670
 Variable       Old X    -DE/DX   Delta X   Delta X   Delta X     New X
                                 (Linear)    (Quad)   (Total)
    R1        2.94103  -0.00704   0.00385  -0.02993  -0.02608   2.91496
    R2        2.05806   0.00259   0.00901   0.00044   0.00945   2.06751
    R3        2.05790   0.00285   0.00899   0.00116   0.01015   2.06805
    R4        2.05666   0.00383   0.00868   0.00414   0.01282   2.06948
    R5        2.93625  -0.00602   0.00310  -0.02550  -0.02241   2.91385
    R6        2.05792   0.00335   0.00909   0.00248   0.01157   2.06949
    R7        2.05533   0.00483   0.00883   0.00674   0.01556   2.07090
    R8        2.92251  -0.00663   0.00154  -0.02667  -0.02513   2.89737
    R9        2.06070   0.00452   0.00927   0.00559   0.01486   2.07555
   R10        2.06059   0.00330   0.00940   0.00209   0.01149   2.07208
   R11        2.91416  -0.00570   0.00032  -0.02224  -0.02193   2.89224
   R12        2.06064   0.00319   0.00958   0.00163   0.01121   2.07185
   R13        2.06175   0.00387   0.00936   0.00374   0.01310   2.07484
   R14        2.05905   0.00267   0.00895   0.00074   0.00969   2.06874
   R15        2.05701   0.00391   0.00892   0.00416   0.01308   2.07009
   R16        2.05960   0.00319   0.00898   0.00215   0.01114   2.07073
    A1        1.94532   0.00061   0.00430   0.00150   0.00572   1.95104
    A2        1.93047   0.00158   0.00250   0.00945   0.01187   1.94234
    A3        1.92976   0.00096   0.00229   0.00392   0.00615   1.93592
    A4        1.88467  -0.00097  -0.00323  -0.00237  -0.00571   1.87896
    A5        1.88392  -0.00093  -0.00325  -0.00489  -0.00819   1.87573
    A6        1.88777  -0.00141  -0.00284  -0.00838  -0.01127   1.87650
    A7        1.97594  -0.00088   0.00791  -0.00355   0.00423   1.98017
    A8        1.90147   0.00087  -0.00119   0.01077   0.00951   1.91099
    A9        1.90493   0.00058  -0.00067   0.00667   0.00592   1.91085
   A10        1.89643   0.00044  -0.00165   0.00654   0.00477   1.90120
   A11        1.90001   0.00062  -0.00124   0.00664   0.00528   1.90529
   A12        1.88290  -0.00169  -0.00341  -0.02863  -0.03204   1.85086
   A13        1.97735  -0.00189   0.00813  -0.00944  -0.00138   1.97597
   A14        1.91342   0.00027   0.00027  -0.00014   0.00012   1.91354
   A15        1.89011   0.00155  -0.00268   0.01751   0.01478   1.90489
   A16        1.89039   0.00135  -0.00239   0.01114   0.00867   1.89906
   A17        1.90060   0.00048  -0.00108   0.00706   0.00592   1.90652
   A18        1.89021  -0.00180  -0.00247  -0.02744  -0.02990   1.86030
   A19        1.95750  -0.00001   0.00571   0.00168   0.00729   1.96479
   A20        1.91197  -0.00049  -0.00008  -0.00277  -0.00293   1.90904
   A21        1.89882   0.00069  -0.00133   0.00774   0.00630   1.90513
   A22        1.89020   0.00116  -0.00256   0.01550   0.01291   1.90311
   A23        1.91320  -0.00010   0.00052   0.00134   0.00179   1.91499
   A24        1.89107  -0.00130  -0.00238  -0.02463  -0.02701   1.86406
   A25        1.93283   0.00101   0.00275   0.00556   0.00823   1.94106
   A26        1.93750   0.00142   0.00315   0.00698   0.01006   1.94755
   A27        1.91631   0.00137   0.00073   0.00839   0.00908   1.92538
   A28        1.88839  -0.00120  -0.00270  -0.00546  -0.00825   1.88014
   A29        1.89348  -0.00114  -0.00193  -0.00563  -0.00761   1.88587
   A30        1.89426  -0.00159  -0.00212  -0.01065  -0.01281   1.88146
    D1        2.42536   0.00067   0.00260   0.13812   0.14071   2.56607
    D2        0.31326   0.00008   0.00042   0.12454   0.12492   0.43818
    D3       -1.73871   0.00128   0.00566   0.14899   0.15466  -1.58405
    D4       -1.76085   0.00091   0.00292   0.14248   0.14542  -1.61543
    D5        2.41024   0.00032   0.00075   0.12889   0.12963   2.53987
    D6        0.35826   0.00152   0.00598   0.15335   0.15937   0.51763
    D7        0.32982   0.00079   0.00243   0.14066   0.14309   0.47291
    D8       -1.78228   0.00020   0.00026   0.12708   0.12730  -1.65498
    D9        2.44893   0.00141   0.00549   0.15153   0.15705   2.60597
   D10        2.53923   0.00081   0.00312   0.14547   0.14861   2.68784
   D11        0.42539   0.00018   0.00070   0.13767   0.13834   0.56373
   D12       -1.63364   0.00129   0.00513   0.16058   0.16573  -1.46791
   D13       -1.62901   0.00165   0.00555   0.16143   0.16699  -1.46201
   D14        2.54034   0.00101   0.00313   0.15363   0.15672   2.69706
   D15        0.48131   0.00213   0.00756   0.17654   0.18411   0.66542
   D16        0.41735   0.00022  -0.00026   0.13459   0.13434   0.55169
   D17       -1.69649  -0.00042  -0.00269   0.12679   0.12407  -1.57242
   D18        2.52767   0.00070   0.00175   0.14970   0.15146   2.67913
   D19       -1.28361   0.00070  -0.00334   0.02748   0.02414  -1.25946
   D20        2.90014  -0.00042  -0.00372   0.00874   0.00504   2.90519
   D21        0.83582   0.00103   0.00002   0.03556   0.03561   0.87143
   D22        0.84316   0.00075   0.00057   0.02904   0.02959   0.87275
   D23       -1.25627  -0.00037   0.00019   0.01030   0.01049  -1.24579
   D24        2.96259   0.00109   0.00393   0.03713   0.04105   3.00364
   D25        2.89520  -0.00037  -0.00443   0.00645   0.00200   2.89720
   D26        0.79576  -0.00149  -0.00481  -0.01229  -0.01710   0.77866
   D27       -1.26856  -0.00004  -0.00107   0.01454   0.01347  -1.25509
   D28       -3.13799   0.00014   0.00021  -0.01200  -0.01178   3.13341
   D29        1.04714   0.00004  -0.00020  -0.01344  -0.01365   1.03350
   D30       -1.04740   0.00023  -0.00001  -0.01009  -0.01009  -1.05748
   D31       -1.02596   0.00030   0.00202  -0.00396  -0.00190  -1.02786
   D32       -3.12401   0.00020   0.00161  -0.00540  -0.00377  -3.12778
   D33        1.06464   0.00039   0.00180  -0.00204  -0.00021   1.06443
   D34        1.03403  -0.00065  -0.00209  -0.02383  -0.02593   1.00810
   D35       -1.06402  -0.00075  -0.00249  -0.02527  -0.02780  -1.09181
   D36        3.12463  -0.00056  -0.00230  -0.02192  -0.02424   3.10039
         Item               Value     Threshold  Converged?
 Maximum Force            0.007038     0.000450     NO 
 RMS     Force            0.002154     0.000300     NO 
 Maximum Displacement     0.448444     0.001800     NO 
 RMS     Displacement     0.115599     0.001200     NO 
 Predicted change in Energy=-2.616257D-03
 GradGradGradGradGradGradGradGradGradGradGradGradGradGradGradGradGradGrad

                          Input orientation:                          
 ---------------------------------------------------------------------
 Center     Atomic      Atomic             Coordinates (Angstroms)
 Number     Number       Type             X           Y           Z
 ---------------------------------------------------------------------
      1          6           0       -0.153199    0.068759   -0.031921
      2          6           0        1.139605    0.893902   -0.196809
      3          6           0        1.780201    1.305519    1.144008
      4          6           0        3.292456    1.538079    1.045129
      5          6           0        4.077663    0.234913    0.878827
      6          1           0       -0.867139    0.267394   -0.836806
      7          1           0        0.057959   -1.005040   -0.033023
      8          1           0       -0.650411    0.305921    0.914559
      9          1           0        5.152661    0.427160    0.802311
     10          1           0        0.925583    1.795776   -0.780004
     11          1           0        1.867194    0.320289   -0.782059
     12          1           0        1.589795    0.529582    1.897669
     13          1           0        1.297048    2.220246    1.507522
     14          1           0        3.641158    2.053028    1.948052
     15          1           0        3.499669    2.206066    0.198741
     16          1           0        3.771085   -0.308219   -0.021738
     17          1           0        3.910671   -0.422375    1.739542
 ---------------------------------------------------------------------
                    Distance matrix (angstroms):
                    1          2          3          4          5
     1  C    0.000000
     2  C    1.542528   0.000000
     3  C    2.578841   1.541941   0.000000
     4  C    3.897624   2.567516   1.533224   0.000000
     5  C    4.330966   3.197412   2.548500   1.530506   0.000000
     6  H    1.094078   2.197529   3.465507   4.739046   5.234074
     7  H    1.094364   2.191521   3.112909   4.253450   4.304297
     8  H    1.095121   2.187469   2.638128   4.132973   4.728743
     9  H    5.382987   4.161815   3.501679   2.180244   1.094730
    10  H    2.169328   1.095125   2.161608   2.999935   3.888911
    11  H    2.169784   1.095872   2.165174   2.617824   2.766226
    12  H    2.640777   2.173072   1.098334   2.154749   2.704507
    13  H    3.016951   2.165346   1.096497   2.158892   3.473993
    14  H    4.717495   3.493103   2.160652   1.096374   2.153909
    15  H    4.238482   2.729127   2.158954   1.097960   2.163802
    16  H    3.942362   2.898350   2.815445   2.185431   1.095445
    17  H    4.460307   3.627788   2.806988   2.169741   1.095785
                    6          7          8          9         10
     6  H    0.000000
     7  H    1.766625   0.000000
     8  H    1.765145   1.765876   0.000000
     9  H    6.241012   5.357702   5.805424   0.000000
    10  H    2.356487   3.025776   2.752266   4.716463   0.000000
    11  H    2.735393   2.364505   3.035960   3.649102   1.750342
    12  H    3.685461   2.903301   2.456635   3.728849   3.035516
    13  H    3.740750   3.783000   2.794430   4.310248   2.356043
    14  H    5.591839   5.110357   4.747426   2.498163   3.857825
    15  H    4.888744   4.712778   4.620185   2.502236   2.784277
    16  H    4.744343   3.777961   4.561080   1.768782   3.619205
    17  H    5.471821   4.280756   4.691960   1.772753   4.492111
                   11         12         13         14         15
    11  H    0.000000
    12  H    2.702165   0.000000
    13  H    3.029371   1.759619   0.000000
    14  H    3.688203   2.555683   2.391000   0.000000
    15  H    2.680130   3.056889   2.562157   1.761683   0.000000
    16  H    2.144274   3.023915   3.853911   3.077734   2.538485
    17  H    3.329538   2.513502   3.724017   2.498747   3.074360
                   16         17
    16  H    0.000000
    17  H    1.770487   0.000000
 Stoichiometry    C5H12
 Framework group  C1[X(C5H12)]
 Deg. of freedom    45
 Full point group                 C1      NOp   1
 Largest Abelian subgroup         C1      NOp   1
 Largest concise Abelian subgroup C1      NOp   1
                         Standard orientation:                         
 ---------------------------------------------------------------------
 Center     Atomic      Atomic             Coordinates (Angstroms)
 Number     Number       Type             X           Y           Z
 ---------------------------------------------------------------------
      1          6           0       -2.325792    0.380941   -0.201533
      2          6           0       -1.036396   -0.018602    0.544936
      3          6           0       -0.010975   -0.746323   -0.347542
      4          6           0        1.434231   -0.587368    0.139169
      5          6           0        1.981259    0.822754   -0.094849
      6          1           0       -3.201969    0.343201    0.452605
      7          1           0       -2.254299    1.396753   -0.602342
      8          1           0       -2.514919   -0.293109   -1.043660
      9          1           0        3.010160    0.913754    0.267802
     10          1           0       -1.290033   -0.663323    1.393052
     11          1           0       -0.569913    0.875782    0.973194
     12          1           0       -0.081991   -0.367268   -1.375945
     13          1           0       -0.263020   -1.812658   -0.388861
     14          1           0        2.074561   -1.310148   -0.380065
     15          1           0        1.483070   -0.830945    1.208655
     16          1           0        1.378382    1.579345    0.419068
     17          1           0        1.976007    1.060200   -1.164586
 ---------------------------------------------------------------------
 Rotational constants (GHZ):          10.0787405           2.3979833           2.2023840
 Standard basis: 6-31G(d) (6D, 7F)
 There are    99 symmetry adapted cartesian basis functions of A   symmetry.
 There are    99 symmetry adapted basis functions of A   symmetry.
    99 basis functions,   188 primitive gaussians,    99 cartesian basis functions
    21 alpha electrons       21 beta electrons
       nuclear repulsion energy       187.4293201204 Hartrees.
 NAtoms=   17 NActive=   17 NUniq=   17 SFac= 1.00D+00 NAtFMM=   60 NAOKFM=F Big=F
 Integral buffers will be    131072 words long.
 Raffenetti 2 integral format.
 Two-electron integral symmetry is turned on.
 Nuclear repulsion after empirical dispersion term =      187.4290091876 Hartrees.
 One-electron integrals computed using PRISM.
 NBasis=    99 RedAO= T EigKep=  4.49D-03  NBF=    99
 NBsUse=    99 1.00D-06 EigRej= -1.00D+00 NBFU=    99
 Initial guess from the checkpoint file:  "pentane_22.chk"
 B after Tr=    -0.000000   -0.000000   -0.000000
         Rot=    0.998854    0.047626   -0.004055    0.002534 Ang=   5.49 deg.
 ExpMin= 1.61D-01 ExpMax= 3.05D+03 ExpMxC= 4.57D+02 IAcc=2 IRadAn=         4 AccDes= 0.00D+00
 Harris functional with IExCor= 1009 and IRadAn=       4 diagonalized for initial guess.
 HarFok:  IExCor= 1009 AccDes= 0.00D+00 IRadAn=         4 IDoV= 1 UseB2=F ITyADJ=14
 ICtDFT=  3500011 ScaDFX=  1.000000  1.000000  1.000000  1.000000
 FoFCou: FMM=F IPFlag=           0 FMFlag=      100000 FMFlg1=           0
         NFxFlg=           0 DoJE=T BraDBF=F KetDBF=T FulRan=T
         wScrn=  0.000000 ICntrl=       500 IOpCl=  0 I1Cent=   200000004 NGrid=           0
         NMat0=    1 NMatS0=      1 NMatT0=    0 NMatD0=    1 NMtDS0=    0 NMtDT0=    0
 Petite list used in FoFCou.
 Keep R1 ints in memory in canonical form, NReq=15944043.
 Requested convergence on RMS density matrix=1.00D-08 within 128 cycles.
 Requested convergence on MAX density matrix=1.00D-06.
 Requested convergence on             energy=1.00D-06.
 No special actions if energy rises.
 Integral accuracy reduced to 1.0D-05 until final iterations.
 Initial convergence to 1.0D-05 achieved.  Increase integral accuracy.
 SCF Done:  E(RM062X) =  -197.644482755     A.U. after   11 cycles
            NFock= 11  Conv=0.41D-08     -V/T= 2.0095
 Calling FoFJK, ICntrl=      2127 FMM=F ISym2X=0 I1Cent= 0 IOpClX= 0 NMat=1 NMatS=1 NMatT=0.
 ***** Axes restored to original set *****
 -------------------------------------------------------------------
 Center     Atomic                   Forces (Hartrees/Bohr)
 Number     Number              X              Y              Z
 -------------------------------------------------------------------
      1        6           0.002585756    0.002602216   -0.000337593
      2        6          -0.002214734   -0.001185382    0.003197689
      3        6           0.000605577   -0.001037237   -0.003472585
      4        6          -0.000833695   -0.001568361   -0.000397813
      5        6           0.000071898    0.001657350    0.000261755
      6        1           0.000801912   -0.001058193   -0.000295983
      7        1           0.000128961    0.000433361    0.001561323
      8        1          -0.000554872    0.000900759   -0.000532158
      9        1          -0.000542262   -0.000512153   -0.000008639
     10        1           0.001170324    0.000944788    0.000232835
     11        1          -0.001313552   -0.000121794   -0.000985774
     12        1           0.000213386   -0.000574695    0.000034288
     13        1          -0.001588816   -0.001081925    0.000520995
     14        1           0.000180560    0.000207670   -0.000552787
     15        1           0.000225800    0.000436834    0.000459349
     16        1           0.000718033    0.000049967    0.000830643
     17        1           0.000345722   -0.000093205   -0.000515545
 -------------------------------------------------------------------
 Cartesian Forces:  Max     0.003472585 RMS     0.001154713

 GradGradGradGradGradGradGradGradGradGradGradGradGradGradGradGradGradGrad
 Berny optimization.
 Using GEDIIS/GDIIS optimizer.
 FormGI is forming the generalized inverse of G from B-inverse, IUseBI=4.
 Internal  Forces:  Max     0.003977764 RMS     0.000898980
 Search for a local minimum.
 Step number   3 out of a maximum of  102
 All quantities printed in internal units (Hartrees-Bohrs-Radians)
 Mixed Optimization -- En-DIIS/RFO-DIIS
 Update second derivatives using D2CorX and points    2    3
 DE= -3.28D-03 DEPred=-2.62D-03 R= 1.25D+00
 TightC=F SS=  1.41D+00  RLast= 6.41D-01 DXNew= 8.4853D-01 1.9243D+00
 Trust test= 1.25D+00 RLast= 6.41D-01 DXMaxT set to 8.49D-01
 ITU=  1  1  0
 Use linear search instead of GDIIS.
     Eigenvalues ---    0.00099   0.00231   0.00238   0.00263   0.03340
     Eigenvalues ---    0.03407   0.03451   0.04521   0.04738   0.04849
     Eigenvalues ---    0.05331   0.05368   0.05428   0.05488   0.08258
     Eigenvalues ---    0.08396   0.08441   0.12191   0.12270   0.12440
     Eigenvalues ---    0.15615   0.16000   0.16000   0.16000   0.16034
     Eigenvalues ---    0.16104   0.21548   0.21989   0.22768   0.27488
     Eigenvalues ---    0.28481   0.28522   0.32497   0.39674   0.39777
     Eigenvalues ---    0.39815   0.39830   0.39850   0.39899   0.39920
     Eigenvalues ---    0.39945   0.39953   0.40031   0.40290   0.44348
 RFO step:  Lambda=-2.64532125D-03 EMin= 9.92109122D-04
 Quartic linear search produced a step of  1.11497.
 Iteration  1 RMS(Cart)=  0.14943107 RMS(Int)=  0.04586157
 Iteration  2 RMS(Cart)=  0.06923023 RMS(Int)=  0.00315713
 Iteration  3 RMS(Cart)=  0.00358586 RMS(Int)=  0.00009679
 Iteration  4 RMS(Cart)=  0.00001029 RMS(Int)=  0.00009641
 Iteration  5 RMS(Cart)=  0.00000000 RMS(Int)=  0.00009641
 Variable       Old X    -DE/DX   Delta X   Delta X   Delta X     New X
                                 (Linear)    (Quad)   (Total)
    R1        2.91496  -0.00398  -0.02908  -0.01064  -0.03972   2.87523
    R2        2.06751  -0.00050   0.01053  -0.00593   0.00460   2.07211
    R3        2.06805  -0.00040   0.01132  -0.00585   0.00547   2.07352
    R4        2.06948  -0.00001   0.01430  -0.00544   0.00885   2.07833
    R5        2.91385  -0.00339  -0.02498  -0.00906  -0.03404   2.87981
    R6        2.06949   0.00042   0.01290  -0.00321   0.00968   2.07917
    R7        2.07090  -0.00028   0.01735  -0.00764   0.00971   2.08061
    R8        2.89737   0.00019  -0.02802   0.01162  -0.01640   2.88097
    R9        2.07555   0.00039   0.01656  -0.00471   0.01185   2.08740
   R10        2.07208  -0.00003   0.01281  -0.00496   0.00786   2.07993
   R11        2.89224  -0.00070  -0.02445   0.00542  -0.01902   2.87321
   R12        2.07185  -0.00030   0.01250  -0.00590   0.00660   2.07845
   R13        2.07484  -0.00004   0.01460  -0.00569   0.00892   2.08376
   R14        2.06874  -0.00062   0.01080  -0.00652   0.00428   2.07302
   R15        2.07009  -0.00091   0.01458  -0.00906   0.00553   2.07562
   R16        2.07073  -0.00040   0.01242  -0.00627   0.00615   2.07688
    A1        1.95104   0.00016   0.00638   0.00057   0.00688   1.95792
    A2        1.94234  -0.00005   0.01324  -0.00562   0.00754   1.94988
    A3        1.93592  -0.00016   0.00686  -0.00495   0.00189   1.93780
    A4        1.87896   0.00007  -0.00637   0.00461  -0.00187   1.87710
    A5        1.87573   0.00003  -0.00913   0.00408  -0.00506   1.87067
    A6        1.87650  -0.00005  -0.01256   0.00194  -0.01065   1.86585
    A7        1.98017  -0.00212   0.00471  -0.01636  -0.01171   1.96846
    A8        1.91099   0.00088   0.01060   0.00178   0.01234   1.92333
    A9        1.91085   0.00047   0.00660   0.00108   0.00766   1.91852
   A10        1.90120   0.00043   0.00532  -0.00179   0.00348   1.90468
   A11        1.90529   0.00101   0.00589   0.00816   0.01402   1.91930
   A12        1.85086  -0.00057  -0.03572   0.00884  -0.02682   1.82404
   A13        1.97597   0.00185  -0.00154   0.01710   0.01535   1.99132
   A14        1.91354  -0.00056   0.00013  -0.00057  -0.00075   1.91279
   A15        1.90489  -0.00120   0.01648  -0.02383  -0.00750   1.89739
   A16        1.89906  -0.00017   0.00966   0.00495   0.01451   1.91357
   A17        1.90652  -0.00003   0.00660  -0.00055   0.00603   1.91255
   A18        1.86030   0.00002  -0.03334   0.00218  -0.03115   1.82915
   A19        1.96479   0.00218   0.00813   0.01621   0.02403   1.98882
   A20        1.90904  -0.00051  -0.00327  -0.00345  -0.00687   1.90217
   A21        1.90513  -0.00058   0.00703  -0.00099   0.00568   1.91081
   A22        1.90311  -0.00086   0.01439  -0.01537  -0.00097   1.90214
   A23        1.91499  -0.00035   0.00199   0.00360   0.00524   1.92023
   A24        1.86406   0.00001  -0.03011  -0.00091  -0.03098   1.83308
   A25        1.94106   0.00032   0.00918  -0.00073   0.00834   1.94940
   A26        1.94755   0.00068   0.01122   0.00280   0.01390   1.96145
   A27        1.92538   0.00047   0.01012   0.00093   0.01094   1.93633
   A28        1.88014  -0.00056  -0.00920  -0.00242  -0.01173   1.86841
   A29        1.88587  -0.00045  -0.00848  -0.00167  -0.01024   1.87563
   A30        1.88146  -0.00055  -0.01428   0.00094  -0.01344   1.86802
    D1        2.56607   0.00067   0.15689   0.13465   0.29151   2.85758
    D2        0.43818   0.00093   0.13928   0.14689   0.28613   0.72431
    D3       -1.58405   0.00086   0.17244   0.13466   0.30709  -1.27696
    D4       -1.61543   0.00083   0.16214   0.13704   0.29921  -1.31622
    D5        2.53987   0.00109   0.14453   0.14929   0.29383   2.83369
    D6        0.51763   0.00102   0.17770   0.13705   0.31479   0.83242
    D7        0.47291   0.00063   0.15955   0.13246   0.29201   0.76493
    D8       -1.65498   0.00089   0.14194   0.14471   0.28663  -1.36834
    D9        2.60597   0.00082   0.17510   0.13247   0.30760   2.91357
   D10        2.68784   0.00087   0.16570   0.12300   0.28868   2.97652
   D11        0.56373   0.00022   0.15425   0.10536   0.25963   0.82336
   D12       -1.46791   0.00120   0.18478   0.11666   0.30141  -1.16650
   D13       -1.46201   0.00087   0.18619   0.11287   0.29907  -1.16294
   D14        2.69706   0.00022   0.17474   0.09523   0.27002   2.96708
   D15        0.66542   0.00121   0.20528   0.10653   0.31180   0.97721
   D16        0.55169   0.00098   0.14978   0.12686   0.27663   0.82832
   D17       -1.57242   0.00033   0.13833   0.10921   0.24757  -1.32485
   D18        2.67913   0.00132   0.16887   0.12051   0.28935   2.96848
   D19       -1.25946  -0.00057   0.02692  -0.07942  -0.05263  -1.31210
   D20        2.90519  -0.00056   0.00562  -0.06826  -0.06265   2.84254
   D21        0.87143   0.00004   0.03970  -0.06466  -0.02495   0.84648
   D22        0.87275  -0.00016   0.03299  -0.06510  -0.03210   0.84065
   D23       -1.24579  -0.00016   0.01169  -0.05393  -0.04211  -1.28790
   D24        3.00364   0.00045   0.04577  -0.05034  -0.00442   2.99922
   D25        2.89720  -0.00025   0.00223  -0.06006  -0.05797   2.83923
   D26        0.77866  -0.00025  -0.01906  -0.04889  -0.06798   0.71068
   D27       -1.25509   0.00036   0.01501  -0.04530  -0.03028  -1.28538
   D28        3.13341   0.00012  -0.01313   0.02328   0.01015  -3.13962
   D29        1.03350   0.00015  -0.01522   0.02496   0.00974   1.04324
   D30       -1.05748   0.00008  -0.01125   0.02132   0.01007  -1.04741
   D31       -1.02786   0.00031  -0.00212   0.01885   0.01681  -1.01106
   D32       -3.12778   0.00034  -0.00420   0.02053   0.01640  -3.11138
   D33        1.06443   0.00027  -0.00023   0.01690   0.01673   1.08115
   D34        1.00810  -0.00037  -0.02891   0.01097  -0.01800   0.99010
   D35       -1.09181  -0.00034  -0.03099   0.01265  -0.01841  -1.11023
   D36        3.10039  -0.00041  -0.02703   0.00902  -0.01808   3.08231
         Item               Value     Threshold  Converged?
 Maximum Force            0.003978     0.000450     NO 
 RMS     Force            0.000899     0.000300     NO 
 Maximum Displacement     0.863107     0.001800     NO 
 RMS     Displacement     0.213425     0.001200     NO 
 Predicted change in Energy=-4.095141D-03
 GradGradGradGradGradGradGradGradGradGradGradGradGradGradGradGradGradGrad

                          Input orientation:                          
 ---------------------------------------------------------------------
 Center     Atomic      Atomic             Coordinates (Angstroms)
 Number     Number       Type             X           Y           Z
 ---------------------------------------------------------------------
      1          6           0       -0.248440    0.198918   -0.033713
      2          6           0        1.146836    0.786862   -0.183762
      3          6           0        1.787515    1.135207    1.154350
      4          6           0        3.261957    1.511029    1.059371
      5          6           0        4.188408    0.325227    0.841896
      6          1           0       -0.808731    0.216786   -0.976101
      7          1           0       -0.215463   -0.841962    0.311917
      8          1           0       -0.836905    0.762658    0.704853
      9          1           0        5.238456    0.636850    0.781166
     10          1           0        1.113394    1.688687   -0.813160
     11          1           0        1.791151    0.087177   -0.738310
     12          1           0        1.664123    0.290410    1.855240
     13          1           0        1.224342    1.963587    1.610487
     14          1           0        3.558449    2.032369    1.981328
     15          1           0        3.401544    2.251750    0.254544
     16          1           0        3.960069   -0.219640   -0.084062
     17          1           0        4.105293   -0.394914    1.667956
 ---------------------------------------------------------------------
                    Distance matrix (angstroms):
                    1          2          3          4          5
     1  C    0.000000
     2  C    1.521509   0.000000
     3  C    2.536384   1.523928   0.000000
     4  C    3.903762   2.558033   1.524546   0.000000
     5  C    4.524187   3.242875   2.553034   1.520438   0.000000
     6  H    1.096512   2.185642   3.481783   4.731671   5.318672
     7  H    1.097260   2.180510   2.937824   4.264704   4.586642
     8  H    1.099806   2.173810   2.688572   4.181675   5.046176
     9  H    5.564337   4.206536   3.506654   2.179022   1.096995
    10  H    2.163687   1.100250   2.152179   2.855566   3.748859
    11  H    2.160758   1.101011   2.163457   2.724387   2.881069
    12  H    2.689687   2.161383   1.104606   2.162496   2.720311
    13  H    2.826047   2.147095   1.100654   2.158798   3.472843
    14  H    4.681276   3.471999   2.150581   1.099867   2.146971
    15  H    4.197571   2.724283   2.159030   1.102679   2.162319
    16  H    4.229572   2.989526   2.844163   2.188610   1.098370
    17  H    4.712039   3.684823   2.824386   2.171223   1.099039
                    6          7          8          9         10
     6  H    0.000000
     7  H    1.769719   0.000000
     8  H    1.767591   1.765048   0.000000
     9  H    6.311332   5.670301   6.077142   0.000000
    10  H    2.426439   3.071782   2.639234   4.545809   0.000000
    11  H    2.613949   2.448015   3.073381   3.807212   1.740630
    12  H    3.759910   2.682714   2.793125   3.748268   3.062489
    13  H    3.724935   3.410342   2.551694   4.308261   2.441710
    14  H    5.578081   5.029028   4.749809   2.492045   3.729018
    15  H    4.835492   4.759946   4.514933   2.501895   2.587019
    16  H    4.871104   4.240183   4.959662   1.765352   3.503834
    17  H    5.613630   4.550563   5.166513   1.770590   4.410078
                   11         12         13         14         15
    11  H    0.000000
    12  H    2.604601   0.000000
    13  H    3.059255   1.747236   0.000000
    14  H    3.782003   2.576585   2.364383   0.000000
    15  H    2.874805   3.070459   2.581052   1.747721   0.000000
    16  H    2.286129   3.048346   3.888724   3.081992   2.556241
    17  H    3.373097   2.542451   3.723669   2.507777   3.081854
                   16         17
    16  H    0.000000
    17  H    1.766742   0.000000
 Stoichiometry    C5H12
 Framework group  C1[X(C5H12)]
 Deg. of freedom    45
 Full point group                 C1      NOp   1
 Largest Abelian subgroup         C1      NOp   1
 Largest concise Abelian subgroup C1      NOp   1
                         Standard orientation:                         
 ---------------------------------------------------------------------
 Center     Atomic      Atomic             Coordinates (Angstroms)
 Number     Number       Type             X           Y           Z
 ---------------------------------------------------------------------
[...]
 ! A22   A(5,4,14)             109.204          -DE/DX =    0.0                 !
 ! A23   A(5,4,15)             109.4718         -DE/DX =    0.0                 !
 ! A24   A(14,4,15)            106.3194         -DE/DX =    0.0                 !
 ! A25   A(4,5,9)              111.2032         -DE/DX =    0.0                 !
 ! A26   A(4,5,16)             111.6243         -DE/DX =    0.0                 !
 ! A27   A(4,5,17)             110.7727         -DE/DX =    0.0                 !
 ! A28   A(9,5,16)             107.5345         -DE/DX =    0.0                 !
 ! A29   A(9,5,17)             107.8337         -DE/DX =    0.0                 !
 ! A30   A(16,5,17)            107.6973         -DE/DX =    0.0                 !
 ! D1    D(6,1,2,3)           -179.4284         -DE/DX =    0.0                 !
 ! D2    D(6,1,2,10)            58.9929         -DE/DX =    0.0                 !
 ! D3    D(6,1,2,11)           -57.2946         -DE/DX =    0.0                 !
 ! D4    D(7,1,2,3)            -59.1929         -DE/DX =    0.0                 !
 ! D5    D(7,1,2,10)           179.2284         -DE/DX =    0.0                 !
 ! D6    D(7,1,2,11)            62.941          -DE/DX =    0.0                 !
 ! D7    D(8,1,2,3)             60.1867         -DE/DX =    0.0                 !
 ! D8    D(8,1,2,10)           -61.392          -DE/DX =    0.0                 !
 ! D9    D(8,1,2,11)          -177.6794         -DE/DX =    0.0                 !
 ! D10   D(1,2,3,4)           -174.9779         -DE/DX =    0.0                 !
 ! D11   D(1,2,3,12)            62.5239         -DE/DX =    0.0                 !
 ! D12   D(1,2,3,13)           -52.923          -DE/DX =    0.0                 !
 ! D13   D(10,2,3,4)           -53.0443         -DE/DX =    0.0                 !
 ! D14   D(10,2,3,12)         -175.5425         -DE/DX =    0.0                 !
 ! D15   D(10,2,3,13)           69.0106         -DE/DX =    0.0                 !
 ! D16   D(11,2,3,4)            63.1983         -DE/DX =    0.0                 !
 ! D17   D(11,2,3,12)          -59.3            -DE/DX =    0.0                 !
 ! D18   D(11,2,3,13)         -174.7469         -DE/DX =    0.0                 !
 ! D19   D(2,3,4,5)            -61.7438         -DE/DX =    0.0                 !
 ! D20   D(2,3,4,14)           176.3399         -DE/DX =    0.0                 !
 ! D21   D(2,3,4,15)            60.6607         -DE/DX =    0.0                 !
 ! D22   D(12,3,4,5)            60.6206         -DE/DX =    0.0                 !
 ! D23   D(12,3,4,14)          -61.2957         -DE/DX =    0.0                 !
 ! D24   D(12,3,4,15)         -176.9749         -DE/DX =    0.0                 !
 ! D25   D(13,3,4,5)           176.4057         -DE/DX =    0.0                 !
 ! D26   D(13,3,4,14)           54.4894         -DE/DX =    0.0                 !
 ! D27   D(13,3,4,15)          -61.1898         -DE/DX =    0.0                 !
 ! D28   D(3,4,5,9)           -174.5747         -DE/DX =    0.0                 !
 ! D29   D(3,4,5,16)            65.3322         -DE/DX =    0.0                 !
 ! D30   D(3,4,5,17)           -54.6749         -DE/DX =    0.0                 !
 ! D31   D(14,4,5,9)           -52.8115         -DE/DX =    0.0                 !
 ! D32   D(14,4,5,16)         -172.9047         -DE/DX =    0.0                 !
 ! D33   D(14,4,5,17)           67.0882         -DE/DX =    0.0                 !
 ! D34   D(15,4,5,9)            63.2127         -DE/DX =    0.0                 !
 ! D35   D(15,4,5,16)          -56.8804         -DE/DX =    0.0                 !
 ! D36   D(15,4,5,17)         -176.8875         -DE/DX =    0.0                 !
 --------------------------------------------------------------------------------
 GradGradGradGradGradGradGradGradGradGradGradGradGradGradGradGradGradGrad

                          Input orientation:                          
 ---------------------------------------------------------------------
 Center     Atomic      Atomic             Coordinates (Angstroms)
 Number     Number       Type             X           Y           Z
 ---------------------------------------------------------------------
      1          6           0       -0.282383    0.285543   -0.042984
      2          6           0        1.205253    0.618338   -0.129134
      3          6           0        1.780064    1.056321    1.218012
      4          6           0        3.238509    1.516069    1.155142
      5          6           0        4.203199    0.424310    0.694042
      6          1           0       -0.680777   -0.036050   -1.009537
      7          1           0       -0.459575   -0.519848    0.677888
      8          1           0       -0.859108    1.156483    0.286055
      9          1           0        5.241619    0.762740    0.754163
     10          1           0        1.365030    1.417303   -0.865754
     11          1           0        1.751438   -0.257191   -0.499745
     12          1           0        1.691478    0.225879    1.932986
     13          1           0        1.162593    1.872126    1.616819
     14          1           0        3.542675    1.870709    2.146925
     15          1           0        3.314639    2.379910    0.481903
     16          1           0        4.012268    0.128796   -0.341959
     17          1           0        4.105078   -0.470439    1.319177
 ---------------------------------------------------------------------
                    Distance matrix (angstroms):
                    1          2          3          4          5
     1  C    0.000000
     2  C    1.526839   0.000000
     3  C    2.537302   1.528737   0.000000
     4  C    3.917446   2.566986   1.530484   0.000000
     5  C    4.547847   3.114955   2.558430   1.528128   0.000000
     6  H    1.093784   2.181844   3.494422   4.738746   5.193008
     7  H    1.095311   2.172188   2.791420   4.248359   4.757432
     8  H    1.095178   2.173378   2.800680   4.204175   5.131226
     9  H    5.601586   4.134406   3.504812   2.177323   1.093831
    10  H    2.161435   1.098400   2.155143   2.757480   3.387359
    11  H    2.153978   1.096458   2.162596   2.845080   2.810819
    12  H    2.793590   2.154710   1.099395   2.159384   2.807686
    13  H    2.712959   2.149920   1.098115   2.156236   3.491844
    14  H    4.683964   3.494627   2.152418   1.096321   2.153887
    15  H    4.195289   2.815317   2.156076   1.097846   2.158451
    16  H    4.307898   2.857320   2.876898   2.182782   1.094112
    17  H    4.655836   3.419360   2.783329   2.173492   1.095901
                    6          7          8          9         10
     6  H    0.000000
     7  H    1.769292   0.000000
     8  H    1.769885   1.767271   0.000000
     9  H    6.230849   5.844182   6.131316   0.000000
    10  H    2.513610   3.076453   2.518230   4.252120   0.000000
    11  H    2.494887   2.518807   3.070978   3.846285   1.757044
    12  H    3.788752   2.599694   3.175515   3.779066   3.059249
    13  H    3.733215   3.038842   2.523956   4.314322   2.531998
    14  H    5.606829   4.887825   4.832044   2.460446   3.744856
    15  H    4.901490   4.763580   4.353768   2.530339   2.558079
    16  H    4.743154   4.632300   5.018052   1.764844   2.990398
    17  H    5.340039   4.609745   5.325163   1.769661   3.980622
                   11         12         13         14         15
    11  H    0.000000
    12  H    2.480953   0.000000
    13  H    3.059506   1.757786   0.000000
    14  H    3.839446   2.485591   2.438402   0.000000
    15  H    3.218933   3.062702   2.485394   1.756014   0.000000
    16  H    2.298964   3.251286   3.872552   3.073975   2.496587
    17  H    2.982209   2.585940   3.772854   2.546064   3.074136
                   16         17
    16  H    0.000000
    17  H    1.768352   0.000000
 Stoichiometry    C5H12
 Framework group  C1[X(C5H12)]
 Deg. of freedom    45
 Full point group                 C1      NOp   1
 Largest Abelian subgroup         C1      NOp   1
 Largest concise Abelian subgroup C1      NOp   1
                         Standard orientation:                         
 ---------------------------------------------------------------------
 Center     Atomic      Atomic             Coordinates (Angstroms)
 Number     Number       Type             X           Y           Z
 ---------------------------------------------------------------------
      1          6           0       -2.425800    0.166352   -0.107365
      2          6           0       -0.971157    0.376715    0.306155
      3          6           0       -0.049743   -0.713690   -0.240702
      4          6           0        1.397070   -0.611986    0.247940
      5          6           0        2.092112    0.683726   -0.168261
      6          1           0       -3.074226    0.957140    0.280660
      7          1           0       -2.522611    0.158001   -1.198357
      8          1           0       -2.803221   -0.791807    0.265326
      9          1           0        3.148096    0.675439    0.116860
     10          1           0       -0.895592    0.396005    1.401783
     11          1           0       -0.633478    1.359330   -0.044074
     12          1           0       -0.065359   -0.678906   -1.339436
     13          1           0       -0.456632   -1.693865    0.041352
     14          1           0        1.964336   -1.466182   -0.139977
     15          1           0        1.414349   -0.701430    1.342000
     16          1           0        1.630721    1.557598    0.301364
     17          1           0        2.038724    0.821972   -1.254096
 ---------------------------------------------------------------------
 Rotational constants (GHZ):          11.6456722           2.3192372           2.1287721

 **********************************************************************

            Population analysis using the SCF density.

 **********************************************************************

 Orbital symmetries:
       Occupied  (A) (A) (A) (A) (A) (A) (A) (A) (A) (A) (A) (A)
                 (A) (A) (A) (A) (A) (A) (A) (A) (A)
       Virtual   (A) (A) (A) (A) (A) (A) (A) (A) (A) (A) (A) (A)
                 (A) (A) (A) (A) (A) (A) (A) (A) (A) (A) (A) (A)
                 (A) (A) (A) (A) (A) (A) (A) (A) (A) (A) (A) (A)
                 (A) (A) (A) (A) (A) (A) (A) (A) (A) (A) (A) (A)
                 (A) (A) (A) (A) (A) (A) (A) (A) (A) (A) (A) (A)
                 (A) (A) (A) (A) (A) (A) (A) (A) (A) (A) (A) (A)
                 (A) (A) (A) (A) (A) (A)
 The electronic state is 1-A.
 Alpha  occ. eigenvalues --  -10.53450 -10.53399 -10.53247 -10.52791 -10.52763
 Alpha  occ. eigenvalues --   -0.89803  -0.83964  -0.76095  -0.69003  -0.64014
 Alpha  occ. eigenvalues --   -0.53522  -0.51072  -0.49691  -0.47334  -0.44477
 Alpha  occ. eigenvalues --   -0.42961  -0.41507  -0.39737  -0.37550  -0.37416
 Alpha  occ. eigenvalues --   -0.36510
 Alpha virt. eigenvalues --    0.13228   0.15992   0.17199   0.17717   0.20805
 Alpha virt. eigenvalues --    0.21534   0.21651   0.22953   0.23455   0.23663
 Alpha virt. eigenvalues --    0.24851   0.26245   0.28980   0.29778   0.31109
 Alpha virt. eigenvalues --    0.32578   0.54508   0.55735   0.57925   0.58926
 Alpha virt. eigenvalues --    0.60060   0.62763   0.64136   0.72527   0.73228
 Alpha virt. eigenvalues --    0.74954   0.76246   0.78286   0.85566   0.90985
 Alpha virt. eigenvalues --    0.93543   0.94146   0.95245   0.96815   0.97484
 Alpha virt. eigenvalues --    0.98589   0.99187   1.02376   1.03248   1.03892
 Alpha virt. eigenvalues --    1.04666   1.05851   1.09011   1.11913   1.31315
 Alpha virt. eigenvalues --    1.46897   1.48587   1.49954   1.60942   1.63731
 Alpha virt. eigenvalues --    1.72569   1.73619   1.86996   1.89984   1.96552
 Alpha virt. eigenvalues --    1.99757   2.02210   2.04324   2.05547   2.09684
 Alpha virt. eigenvalues --    2.19540   2.22821   2.29996   2.35673   2.36941
 Alpha virt. eigenvalues --    2.40405   2.40907   2.45406   2.49542   2.60316
 Alpha virt. eigenvalues --    2.64873   2.72301   2.80069   4.15590   4.25023
 Alpha virt. eigenvalues --    4.36074   4.45806   4.56306
          Condensed to atoms (all electrons):
               1          2          3          4          5          6
     1  C    5.093073   0.363911  -0.049894   0.004308   0.000129   0.381153
     2  C    0.363911   5.018963   0.375578  -0.047164  -0.004460  -0.030134
     3  C   -0.049894   0.375578   5.037422   0.372972  -0.052570   0.004376
     4  C    0.004308  -0.047164   0.372972   5.011230   0.361779  -0.000143
     5  C    0.000129  -0.004460  -0.052570   0.361779   5.106518   0.000005
     6  H    0.381153  -0.030134   0.004376  -0.000143   0.000005   0.548359
     7  H    0.384233  -0.036527  -0.004268   0.000082  -0.000016  -0.028622
     8  H    0.384238  -0.036354  -0.004687  -0.000033   0.000003  -0.028512
     9  H   -0.000001   0.000116   0.004491  -0.030222   0.382425  -0.000000
    10  H   -0.038039   0.386754  -0.044756  -0.001985  -0.000948  -0.002714
    11  H   -0.038134   0.386617  -0.038284  -0.005033   0.003369  -0.002660
    12  H   -0.002774  -0.042353   0.380549  -0.038118  -0.005952  -0.000059
    13  H   -0.003665  -0.043541   0.385047  -0.035869   0.005099   0.000022
    14  H   -0.000137   0.004907  -0.036129   0.387236  -0.039780   0.000002
    15  H    0.000002  -0.006545  -0.039808   0.385478  -0.040736  -0.000000
    16  H   -0.000041   0.003348  -0.005574  -0.034063   0.384346   0.000005
    17  H   -0.000038  -0.000917  -0.003615  -0.038633   0.383489   0.000000
               7          8          9         10         11         12
     1  C    0.384233   0.384238  -0.000001  -0.038039  -0.038134  -0.002774
     2  C   -0.036527  -0.036354   0.000116   0.386754   0.386617  -0.042353
     3  C   -0.004268  -0.004687   0.004491  -0.044756  -0.038284   0.380549
     4  C    0.000082  -0.000033  -0.030222  -0.001985  -0.005033  -0.038118
     5  C   -0.000016   0.000003   0.382425  -0.000948   0.003369  -0.005952
     6  H   -0.028622  -0.028512  -0.000000  -0.002714  -0.002660  -0.000059
     7  H    0.555614  -0.030421  -0.000000   0.004895  -0.004265   0.004202
     8  H   -0.030421   0.555478   0.000000  -0.004302   0.004860  -0.000302
     9  H   -0.000000   0.000000   0.546651  -0.000037  -0.000019  -0.000039
    10  H    0.004895  -0.004302  -0.000037   0.583776  -0.036313   0.005628
    11  H   -0.004265   0.004860  -0.000019  -0.036313   0.577429  -0.005392
    12  H    0.004202  -0.000302  -0.000039   0.005628  -0.005392   0.590321
    13  H   -0.000371   0.004917  -0.000129  -0.004201   0.005360  -0.034656
    14  H    0.000003  -0.000005  -0.003892   0.000027  -0.000068  -0.003298
    15  H    0.000006   0.000003  -0.002188   0.005189  -0.000110   0.005518
    16  H    0.000008  -0.000001  -0.028700   0.000546   0.000701  -0.000059
    17  H    0.000002   0.000000  -0.028378   0.000113   0.000432   0.005067
              13         14         15         16         17
     1  C   -0.003665  -0.000137   0.000002  -0.000041  -0.000038
     2  C   -0.043541   0.004907  -0.006545   0.003348  -0.000917
     3  C    0.385047  -0.036129  -0.039808  -0.005574  -0.003615
     4  C   -0.035869   0.387236   0.385478  -0.034063  -0.038633
     5  C    0.005099  -0.039780  -0.040736   0.384346   0.383489
     6  H    0.000022   0.000002  -0.000000   0.000005   0.000000
     7  H   -0.000371   0.000003   0.000006   0.000008   0.000002
     8  H    0.004917  -0.000005   0.000003  -0.000001   0.000000
     9  H   -0.000129  -0.003892  -0.002188  -0.028700  -0.028378
    10  H   -0.004201   0.000027   0.005189   0.000546   0.000113
    11  H    0.005360  -0.000068  -0.000110   0.000701   0.000432
    12  H   -0.034656  -0.003298   0.005518  -0.000059   0.005067
    13  H    0.583825  -0.003622  -0.003200  -0.000060   0.000023
    14  H   -0.003622   0.576440  -0.034025   0.004710  -0.003366
    15  H   -0.003200  -0.034025   0.582881  -0.004595   0.005006
    16  H   -0.000060   0.004710  -0.004595   0.550523  -0.030566
    17  H    0.000023  -0.003366   0.005006  -0.030566   0.557097
 Mulliken charges:
               1
     1  C   -0.478323
     2  C   -0.292201
     3  C   -0.280850
     4  C   -0.291822
     5  C   -0.482701
     6  H    0.158922
     7  H    0.155447
     8  H    0.155117
     9  H    0.159921
    10  H    0.146367
    11  H    0.151509
    12  H    0.141716
    13  H    0.145020
    14  H    0.150998
    15  H    0.147125
    16  H    0.159472
    17  H    0.154283
 Sum of Mulliken charges =  -0.00000
 Mulliken charges with hydrogens summed into heavy atoms:
               1
     1  C   -0.008837
     2  C    0.005676
     3  C    0.005886
     4  C    0.006301
     5  C   -0.009026
 Electronic spatial extent (au):  <R**2>=            646.5776
 Charge=             -0.0000 electrons
 Dipole moment (field-independent basis, Debye):
    X=              0.0312    Y=             -0.0128    Z=              0.0261  Tot=              0.0427
 Quadrupole moment (field-independent basis, Debye-Ang):
   XX=            -35.3131   YY=            -34.9461   ZZ=            -34.6499
   XY=             -0.2150   XZ=             -0.1317   YZ=             -0.0537
 Traceless Quadrupole moment (field-independent basis, Debye-Ang):
   XX=             -0.3434   YY=              0.0236   ZZ=              0.3198
   XY=             -0.2150   XZ=             -0.1317   YZ=             -0.0537
 Octapole moment (field-independent basis, Debye-Ang**2):
  XXX=              2.3266  YYY=             -0.2697  ZZZ=             -0.5415  XYY=             -0.9517
  XXY=             -0.3235  XXZ=              0.8355  XZZ=             -0.0847  YZZ=              0.0895
  YYZ=              0.5058  XYZ=              0.4035
 Hexadecapole moment (field-independent basis, Debye-Ang**3):
 XXXX=           -668.5345 YYYY=           -142.7636 ZZZZ=            -80.8353 XXXY=             -3.4195
 XXXZ=             -0.7709 YYYX=             -1.3252 YYYZ=              0.3183 ZZZX=              0.5510
 ZZZY=             -0.7144 XXYY=           -134.4863 XXZZ=           -125.7525 YYZZ=            -39.1411
 XXYZ=              1.0916 YYXZ=             -1.3577 ZZXY=             -0.1577
 N-N= 1.877096469298D+02 E-N=-8.314544558619D+02  KE= 1.958247868833D+02
 1\1\GINC-ROBERTS-MACBOOK-PRO-2\FOpt\RM062X\6-31G(d)\C5H12\ROBERT.PATON
 \22-Sep-2018\0\\# opt=(maxcycles=160) M062X/6-31G(d) emp=GD3\\Generate
 d by prepare_file.py\\0,1\C,-0.2823833099,0.2855430193,-0.0429835682\C
 ,1.2052531264,0.6183376249,-0.1291335917\C,1.7800644724,1.0563212548,1
 .2180116753\C,3.2385094355,1.5160692851,1.1551417797\C,4.2031990331,0.
 4243104866,0.6940417215\H,-0.6807774514,-0.03604974,-1.0095365771\H,-0
 .4595750182,-0.5198476415,0.6778880948\H,-0.8591082446,1.1564832562,0.
 2860547895\H,5.2416192123,0.7627402389,0.7541631645\H,1.3650301106,1.4
 173027833,-0.8657537157\H,1.7514381433,-0.2571908637,-0.4997449706\H,1
 .6914782807,0.2258787486,1.9329856424\H,1.1625926507,1.8721263246,1.61
 68192576\H,3.5426746338,1.8707089126,2.1469250536\H,3.3146390155,2.379
 9099079,0.4819030548\H,4.0122679534,0.12879589,-0.3419586198\H,4.10507
 79566,-0.4704394875,1.3191768094\\Version=EM64M-G16RevA.03\State=1-A\H
 F=-197.6496426\RMSD=4.798e-09\RMSF=1.435e-06\Dipole=0.0113703,0.012329
 ,-0.0005446\Quadrupole=-0.3284067,0.179625,0.1487817,0.0043752,0.09664
 26,-0.0851468\PG=C01 [X(C5H12)]\\@


 EVANS BOLDLY PUT 50 ATM. OF ETHYLENE IN A CELL WITH 25 ATM. OF OXYGEN.
 THE APPARATUS SUBSEQUENTLY BLEW UP, BUT LUCKILY NOT BEFORE HE
 OBTAINED THE SPECTRA SHOWN IN FIGURE 8.
 A.J.MERER AND R.S.MULLIKEN, CHEM.REV. 69, 645 (1969)
 Job cpu time:       0 days  0 hours 18 minutes 54.1 seconds.
 Elapsed time:       0 days  0 hours 43 minutes  7.6 seconds.
 File lengths (MBytes):  RWF=     10 Int=      0 D2E=      0 Chk=      2 Scr=      1
 Normal termination of Gaussian 16 at Sat Sep 22 01:23:12 2018.
