 Entering Gaussian System, Link 0=g16
 Initial command:
 /Applications/g16/l1.exe "/var/folders/hc/gtglrcdn25lc_0x4jfkqf1nh0000gn/T/Gau-28670.inp" -scrdir="/var/folders/hc/gtglrcdn25lc_0x4jfkqf1nh0000gn/T/"
 Entering Link 1 = /Applications/g16/l1.exe PID=     28671.
  
 Copyright (c) 1988,1990,1992,1993,1995,1998,2003,2009,2016,
            Gaussian, Inc.  All Rights Reserved.
  
 This is part of the Gaussian(R) 16 program.  It is based on
 the Gaussian(R) 09 system (copyright 2009, Gaussian, Inc.),
 the Gaussian(R) 03 system (copyright 2003, Gaussian, Inc.),
 the Gaussian(R) 98 system (copyright 1998, Gaussian, Inc.),
 the Gaussian(R) 94 system (copyright 1995, Gaussian, Inc.),
 the Gaussian 92(TM) system (copyright 1992, Gaussian, Inc.),
 the Gaussian 90(TM) system (copyright 1990, Gaussian, Inc.),
 the Gaussian 88(TM) system (copyright 1988, Gaussian, Inc.),
 the Gaussian 86(TM) system (copyright 1986, Carnegie Mellon
 University), and the Gaussian 82(TM) system (copyright 1983,
 Carnegie Mellon University). Gaussian is a federally registered
 trademark of Gaussian, Inc.
  
 This software contains proprietary and confidential information,
 including trade secrets, belonging to Gaussian, Inc.
  
 This software is provided under written license and may be
 used, copied, transmitted, or stored only in accord with that
 written license.
  
 The following legend is applicable only to US Government
 contracts under FAR:
  
                    RESTRICTED RIGHTS LEGEND
  
 Use, reproduction and disclosure by the US Government is
 subject to restrictions as set forth in subparagraphs (a)
 and (c) of the Commercial Computer Software - Restricted
 Rights clause in FAR 52.227-19.
  
 Gaussian, Inc.
 340 Quinnipiac St., Bldg. 40, Wallingford CT 06492
  
  
 ---------------------------------------------------------------
 Warning -- This program may not be used in any manner that
 competes with the business of Gaussian, Inc. or will provide
 assistance to any competitor of Gaussian, Inc.  The licensee
 of this program is prohibited from giving any competitor of
 Gaussian, Inc. access to this program.  By using this program,
 the user acknowledges that Gaussian, Inc. is engaged in the
 business of creating and licensing software in the field of
 computational chemistry and represents and warrants to the
 licensee that it is not a competitor of Gaussian, Inc. and that
 it will not use this program in any manner prohibited above.
 ---------------------------------------------------------------
  

 Cite this work as:
 Gaussian 16, Revision A.03,
 M. J. Frisch, G. W. Trucks, H. B. Schlegel, G. E. Scuseria, 
 M. A. Robb, J. R. Cheeseman, G. Scalmani, V. Barone, 
 G. A. Petersson, H. Nakatsuji, X. Li, M. Caricato, A. V. Marenich, 
 J. Bloino, B. G. Janesko, R. Gomperts, B. Mennucci, H. P. Hratchian, 
 J. V. Ortiz, A. F. Izmaylov, J. L. Sonnenberg, D. Williams-Young, 
 F. Ding, F. Lipparini, F. Egidi, J. Goings, B. Peng, A. Petrone, 
 T. Henderson, D. Ranasinghe, V. G. Zakrzewski, J. Gao, N. Rega, 
 G. Zheng, W. Liang, M. Hada, M. Ehara, K. Toyota, R. Fukuda, 
 J. Hasegawa, M. Ishida, T. Nakajima, Y. Honda, O. Kitao, H. Nakai, 
 T. Vreven, K. Throssell, J. A. Montgomery, Jr., J. E. Peralta, 
 F. Ogliaro, M. J. Bearpark, J. J. Heyd, E. N. Brothers, K. N. Kudin, 
 V. N. Staroverov, T. A. Keith, R. Kobayashi, J. Normand, 
 K. Raghavachari, A. P. Rendell, J. C. Burant, S. S. Iyengar, 
 J. Tomasi, M. Cossi, J. M. Millam, M. Klene, C. Adamo, R. Cammi, 
 J. W. Ochterski, R. L. Martin, K. Morokuma, O. Farkas, 
 J. B. Foresman, and D. J. Fox, Gaussian, Inc., Wallingford CT, 2016.
 
 ******************************************
 Gaussian 16:  EM64M-G16RevA.03 25-Dec-2016
                22-Sep-2018 
 ******************************************
 %mem=1GB
 %nprocshared=4
 Will use up to    4 processors via shared memory.
 %chk=pentane_7.chk
 --------------------------------------------
 # opt=(maxcycles=160) M062X/6-31G(d) emp=GD3
 --------------------------------------------
 1/6=160,18=20,19=15,26=3,38=1/1,3;
 2/9=110,12=2,17=6,18=5,40=1/2;
 3/5=1,6=6,7=1,11=2,25=1,30=1,71=1,74=-55,124=31/1,2,3;
 4//1;
 5/5=2,38=5/2;
 6/7=2,8=2,9=2,10=2,28=1/1;
 7//1,2,3,16;
 1/6=160,18=20,19=15,26=3/3(2);
 2/9=110/2;
 99//99;
 2/9=110/2;
 3/5=1,6=6,7=1,11=2,25=1,30=1,71=1,74=-55,124=31/1,2,3;
 4/5=5,16=3,69=1/1;
 5/5=2,38=5/2;
 7//1,2,3,16;
 1/6=160,18=20,19=15,26=3/3(-5);
 2/9=110/2;
 6/7=2,8=2,9=2,10=2,19=2,28=1/1;
 99/9=1/99;
 ----------------------------
 Generated by prepare_file.py
 ----------------------------
 Symbolic Z-matrix:
 Charge =  0 Multiplicity = 1
 C                     0.        0.        0. 
 C                     1.171     0.975    -0.22 
 C                     1.752     1.396     1.143 
 C                     3.279     1.554     1.023 
 C                     3.603     2.82      0.209 
 H                    -0.785     0.244    -0.653 
 H                     0.322    -0.981    -0.19 
 H                    -0.335     0.073     0.993 
 H                     4.644     2.926     0.126 
 H                     0.828     1.825    -0.731 
 H                     1.917     0.503    -0.787 
 H                     1.532     0.661     1.86 
 H                     1.329     2.31      1.438 
 H                     3.681     0.714     0.539 
 H                     3.698     1.638     1.982 
 H                     3.204     3.661     0.695 
 H                     3.182     2.737    -0.75 
 

 GradGradGradGradGradGradGradGradGradGradGradGradGradGradGradGradGradGrad
 Berny optimization.
 Initialization pass.
                           ----------------------------
                           !    Initial Parameters    !
                           ! (Angstroms and Degrees)  !
 --------------------------                            --------------------------
 ! Name  Definition              Value          Derivative Info.                !
 --------------------------------------------------------------------------------
 ! R1    R(1,2)                  1.5396         estimate D2E/DX2                !
 ! R2    R(1,6)                  1.0498         estimate D2E/DX2                !
 ! R3    R(1,7)                  1.0498         estimate D2E/DX2                !
 ! R4    R(1,8)                  1.0505         estimate D2E/DX2                !
 ! R5    R(2,3)                  1.5403         estimate D2E/DX2                !
 ! R6    R(2,10)                 1.0494         estimate D2E/DX2                !
 ! R7    R(2,11)                 1.0492         estimate D2E/DX2                !
 ! R8    R(3,4)                  1.5398         estimate D2E/DX2                !
 ! R9    R(3,12)                 1.0501         estimate D2E/DX2                !
 ! R10   R(3,13)                 1.0495         estimate D2E/DX2                !
 ! R11   R(4,5)                  1.5396         estimate D2E/DX2                !
 ! R12   R(4,14)                 1.0495         estimate D2E/DX2                !
 ! R13   R(4,15)                 1.0499         estimate D2E/DX2                !
 ! R14   R(5,9)                  1.0497         estimate D2E/DX2                !
 ! R15   R(5,16)                 1.0501         estimate D2E/DX2                !
 ! R16   R(5,17)                 1.0506         estimate D2E/DX2                !
 ! A1    A(2,1,6)              109.4301         estimate D2E/DX2                !
 ! A2    A(2,1,7)              109.428          estimate D2E/DX2                !
 ! A3    A(2,1,8)              109.4882         estimate D2E/DX2                !
 ! A4    A(6,1,7)              109.5086         estimate D2E/DX2                !
 ! A5    A(6,1,8)              109.472          estimate D2E/DX2                !
 ! A6    A(7,1,8)              109.5003         estimate D2E/DX2                !
 ! A7    A(1,2,3)              109.4839         estimate D2E/DX2                !
 ! A8    A(1,2,10)             109.5077         estimate D2E/DX2                !
 ! A9    A(1,2,11)             109.459          estimate D2E/DX2                !
 ! A10   A(3,2,10)             109.438          estimate D2E/DX2                !
 ! A11   A(3,2,11)             109.4492         estimate D2E/DX2                !
 ! A12   A(10,2,11)            109.4895         estimate D2E/DX2                !
 ! A13   A(2,3,4)              109.4593         estimate D2E/DX2                !
 ! A14   A(2,3,12)             109.5033         estimate D2E/DX2                !
 ! A15   A(2,3,13)             109.5572         estimate D2E/DX2                !
 ! A16   A(4,3,12)             109.438          estimate D2E/DX2                !
 ! A17   A(4,3,13)             109.4053         estimate D2E/DX2                !
 ! A18   A(12,3,13)            109.4641         estimate D2E/DX2                !
 ! A19   A(3,4,5)              109.5281         estimate D2E/DX2                !
 ! A20   A(3,4,14)             109.491          estimate D2E/DX2                !
 ! A21   A(3,4,15)             109.4378         estimate D2E/DX2                !
 ! A22   A(5,4,14)             109.4943         estimate D2E/DX2                !
 ! A23   A(5,4,15)             109.4607         estimate D2E/DX2                !
 ! A24   A(14,4,15)            109.4153         estimate D2E/DX2                !
 ! A25   A(4,5,9)              109.4846         estimate D2E/DX2                !
 ! A26   A(4,5,16)             109.5061         estimate D2E/DX2                !
 ! A27   A(4,5,17)             109.47           estimate D2E/DX2                !
 ! A28   A(9,5,16)             109.4236         estimate D2E/DX2                !
 ! A29   A(9,5,17)             109.4635         estimate D2E/DX2                !
 ! A30   A(16,5,17)            109.4795         estimate D2E/DX2                !
 ! D1    D(6,1,2,3)            137.7376         estimate D2E/DX2                !
 ! D2    D(6,1,2,10)            17.7482         estimate D2E/DX2                !
 ! D3    D(6,1,2,11)          -102.2891         estimate D2E/DX2                !
 ! D4    D(7,1,2,3)           -102.2681         estimate D2E/DX2                !
 ! D5    D(7,1,2,10)           137.7425         estimate D2E/DX2                !
 ! D6    D(7,1,2,11)            17.7052         estimate D2E/DX2                !
 ! D7    D(8,1,2,3)             17.7515         estimate D2E/DX2                !
 ! D8    D(8,1,2,10)          -102.2379         estimate D2E/DX2                !
 ! D9    D(8,1,2,11)           137.7248         estimate D2E/DX2                !
 ! D10   D(1,2,3,4)            144.0157         estimate D2E/DX2                !
 ! D11   D(1,2,3,12)            24.0441         estimate D2E/DX2                !
 ! D12   D(1,2,3,13)           -96.0197         estimate D2E/DX2                !
 ! D13   D(10,2,3,4)           -95.9523         estimate D2E/DX2                !
 ! D14   D(10,2,3,12)          144.0761         estimate D2E/DX2                !
 ! D15   D(10,2,3,13)           24.0124         estimate D2E/DX2                !
 ! D16   D(11,2,3,4)            24.0363         estimate D2E/DX2                !
 ! D17   D(11,2,3,12)          -95.9353         estimate D2E/DX2                !
 ! D18   D(11,2,3,13)          144.001          estimate D2E/DX2                !
 ! D19   D(2,3,4,5)             71.968          estimate D2E/DX2                !
 ! D20   D(2,3,4,14)           -48.1073         estimate D2E/DX2                !
 ! D21   D(2,3,4,15)          -168.0305         estimate D2E/DX2                !
 ! D22   D(12,3,4,5)          -168.0203         estimate D2E/DX2                !
 ! D23   D(12,3,4,14)           71.9043         estimate D2E/DX2                !
 ! D24   D(12,3,4,15)          -48.0189         estimate D2E/DX2                !
 ! D25   D(13,3,4,5)           -48.0896         estimate D2E/DX2                !
 ! D26   D(13,3,4,14)         -168.165          estimate D2E/DX2                !
 ! D27   D(13,3,4,15)           71.9119         estimate D2E/DX2                !
 ! D28   D(3,4,5,9)           -179.8884         estimate D2E/DX2                !
 ! D29   D(3,4,5,16)            60.1403         estimate D2E/DX2                !
 ! D30   D(3,4,5,17)           -59.8904         estimate D2E/DX2                !
 ! D31   D(14,4,5,9)           -59.8151         estimate D2E/DX2                !
 ! D32   D(14,4,5,16)         -179.7863         estimate D2E/DX2                !
 ! D33   D(14,4,5,17)           60.1829         estimate D2E/DX2                !
 ! D34   D(15,4,5,9)            60.1241         estimate D2E/DX2                !
 ! D35   D(15,4,5,16)          -59.8472         estimate D2E/DX2                !
 ! D36   D(15,4,5,17)         -179.8779         estimate D2E/DX2                !
 --------------------------------------------------------------------------------
 Trust Radius=3.00D-01 FncErr=1.00D-07 GrdErr=1.00D-06 EigMax=2.50D+02 EigMin=1.00D-04
 Number of steps in this run=    102 maximum allowed number of steps=    102.
 GradGradGradGradGradGradGradGradGradGradGradGradGradGradGradGradGradGrad

                          Input orientation:                          
 ---------------------------------------------------------------------
 Center     Atomic      Atomic             Coordinates (Angstroms)
 Number     Number       Type             X           Y           Z
 ---------------------------------------------------------------------
      1          6           0        0.000000    0.000000    0.000000
      2          6           0        1.171000    0.975000   -0.220000
      3          6           0        1.752000    1.396000    1.143000
      4          6           0        3.279000    1.554000    1.023000
      5          6           0        3.603000    2.820000    0.209000
      6          1           0       -0.785000    0.244000   -0.653000
      7          1           0        0.322000   -0.981000   -0.190000
      8          1           0       -0.335000    0.073000    0.993000
      9          1           0        4.644000    2.926000    0.126000
     10          1           0        0.828000    1.825000   -0.731000
     11          1           0        1.917000    0.503000   -0.787000
     12          1           0        1.532000    0.661000    1.860000
     13          1           0        1.329000    2.310000    1.438000
     14          1           0        3.681000    0.714000    0.539000
     15          1           0        3.698000    1.638000    1.982000
     16          1           0        3.204000    3.661000    0.695000
     17          1           0        3.182000    2.737000   -0.750000
 ---------------------------------------------------------------------
                    Distance matrix (angstroms):
                    1          2          3          4          5
     1  C    0.000000
     2  C    1.539567   0.000000
     3  C    2.514909   1.540315   0.000000
     4  C    3.770051   2.514747   1.539835   0.000000
     5  C    4.580141   3.082643   2.515220   1.539587   0.000000
     6  H    1.049843   2.132554   3.314979   4.587066   5.160752
     7  H    1.049831   2.132519   3.077648   4.079392   5.037039
     8  H    1.050525   2.133778   2.475560   3.905798   4.865029
     9  H    5.490363   3.998480   3.426201   2.133124   1.049669
    10  H    2.133207   1.049414   2.133001   3.026113   3.094228
    11  H    2.132432   1.049185   2.132973   2.497147   3.033661
    12  H    2.498709   2.134319   1.050102   2.133079   3.417034
    13  H    3.028231   2.134515   1.049452   2.132196   2.634695
    14  H    3.788150   2.635204   2.133303   1.049505   2.133124
    15  H    4.504062   3.416739   2.132932   1.049904   2.132997
    16  H    4.914424   3.490689   2.727496   2.133696   1.050085
    17  H    4.263660   2.725741   2.725184   2.133642   1.050624
                    6          7          8          9         10
     6  H    0.000000
     7  H    1.714772   0.000000
     8  H    1.714951   1.715242   0.000000
     9  H    6.105244   5.834740   5.803597   0.000000
    10  H    2.259959   2.902129   2.719237   4.063066   0.000000
    11  H    2.717690   2.258913   2.902551   3.760456   1.713692
    12  H    3.443479   2.891844   2.140823   4.221555   2.926396
    13  H    3.620723   3.807245   2.823312   3.618014   2.278330
    14  H    4.646173   3.832407   4.092096   2.447628   3.314639
    15  H    5.383656   4.793133   4.437616   2.449203   3.953763
    16  H    5.422648   5.535098   5.048472   1.713939   3.324116
    17  H    4.686315   4.724058   4.743863   1.714801   2.524564
                   11         12         13         14         15
    11  H    0.000000
    12  H    2.679515   0.000000
    13  H    2.926024   1.714204   0.000000
    14  H    2.216866   2.523103   2.981161   0.000000
    15  H    3.482463   2.379279   2.521841   1.713568   0.000000
    16  H    3.718287   3.626680   2.427524   2.989427   2.448047
    17  H    2.567557   3.720803   2.898841   2.450112   2.989629
                   16         17
    16  H    0.000000
    17  H    1.715309   0.000000
 Stoichiometry    C5H12
 Framework group  C1[X(C5H12)]
 Deg. of freedom    45
 Full point group                 C1      NOp   1
 Largest Abelian subgroup         C1      NOp   1
 Largest concise Abelian subgroup C1      NOp   1
                         Standard orientation:                         
 ---------------------------------------------------------------------
 Center     Atomic      Atomic             Coordinates (Angstroms)
 Number     Number       Type             X           Y           Z
 ---------------------------------------------------------------------
      1          6           0       -2.409813   -0.067436    0.069195
      2          6           0       -0.938778   -0.521664    0.069527
      3          6           0       -0.042608    0.638929   -0.402145
      4          6           0        1.286336    0.609459    0.375115
      5          6           0        2.138274   -0.578849   -0.107018
      6          1           0       -3.011697   -0.833235   -0.322542
      7          1           0       -2.709634    0.145874    1.052430
      8          1           0       -2.510323    0.794508   -0.522881
      9          1           0        3.043149   -0.599416    0.424568
     10          1           0       -0.823893   -1.337848   -0.580023
     11          1           0       -0.660780   -0.805308    1.040636
     12          1           0       -0.530165    1.552194   -0.226219
     13          1           0        0.151466    0.538170   -1.428562
     14          1           0        1.089854    0.506179    1.400877
     15          1           0        1.808633    1.504809    0.208230
     16          1           0        2.338051   -0.473810   -1.132559
     17          1           0        1.614878   -1.474749    0.057998
 ---------------------------------------------------------------------
 Rotational constants (GHZ):          12.3383951           2.3647283           2.1988057
 Standard basis: 6-31G(d) (6D, 7F)
 There are    99 symmetry adapted cartesian basis functions of A   symmetry.
 There are    99 symmetry adapted basis functions of A   symmetry.
    99 basis functions,   188 primitive gaussians,    99 cartesian basis functions
    21 alpha electrons       21 beta electrons
       nuclear repulsion energy       190.8891645578 Hartrees.
 NAtoms=   17 NActive=   17 NUniq=   17 SFac= 1.00D+00 NAtFMM=   60 NAOKFM=F Big=F
 Integral buffers will be    131072 words long.
 Raffenetti 2 integral format.
 Two-electron integral symmetry is turned on.
 Nuclear repulsion after empirical dispersion term =      190.8888802700 Hartrees.
 One-electron integrals computed using PRISM.
 NBasis=    99 RedAO= T EigKep=  4.24D-03  NBF=    99
 NBsUse=    99 1.00D-06 EigRej= -1.00D+00 NBFU=    99
 ExpMin= 1.61D-01 ExpMax= 3.05D+03 ExpMxC= 4.57D+02 IAcc=3 IRadAn=         5 AccDes= 0.00D+00
 Harris functional with IExCor= 1009 and IRadAn=       5 diagonalized for initial guess.
 HarFok:  IExCor= 1009 AccDes= 0.00D+00 IRadAn=         5 IDoV= 1 UseB2=F ITyADJ=14
 ICtDFT=  3500011 ScaDFX=  1.000000  1.000000  1.000000  1.000000
 FoFCou: FMM=F IPFlag=           0 FMFlag=      100000 FMFlg1=           0
         NFxFlg=           0 DoJE=T BraDBF=F KetDBF=T FulRan=T
         wScrn=  0.000000 ICntrl=       500 IOpCl=  0 I1Cent=   200000004 NGrid=           0
         NMat0=    1 NMatS0=      1 NMatT0=    0 NMatD0=    1 NMtDS0=    0 NMtDT0=    0
 Petite list used in FoFCou.
 Keep R1 ints in memory in canonical form, NReq=15944043.
 Requested convergence on RMS density matrix=1.00D-08 within 128 cycles.
 Requested convergence on MAX density matrix=1.00D-06.
 Requested convergence on             energy=1.00D-06.
 No special actions if energy rises.
 Integral accuracy reduced to 1.0D-05 until final iterations.
 Initial convergence to 1.0D-05 achieved.  Increase integral accuracy.
 SCF Done:  E(RM062X) =  -197.622276747     A.U. after   12 cycles
            NFock= 12  Conv=0.37D-08     -V/T= 2.0052

 **********************************************************************

            Population analysis using the SCF density.

 **********************************************************************

 Orbital symmetries:
       Occupied  (A) (A) (A) (A) (A) (A) (A) (A) (A) (A) (A) (A)
                 (A) (A) (A) (A) (A) (A) (A) (A) (A)
       Virtual   (A) (A) (A) (A) (A) (A) (A) (A) (A) (A) (A) (A)
                 (A) (A) (A) (A) (A) (A) (A) (A) (A) (A) (A) (A)
                 (A) (A) (A) (A) (A) (A) (A) (A) (A) (A) (A) (A)
                 (A) (A) (A) (A) (A) (A) (A) (A) (A) (A) (A) (A)
                 (A) (A) (A) (A) (A) (A) (A) (A) (A) (A) (A) (A)
                 (A) (A) (A) (A) (A) (A) (A) (A) (A) (A) (A) (A)
                 (A) (A) (A) (A) (A) (A)
 The electronic state is 1-A.
 Alpha  occ. eigenvalues --  -10.52028 -10.52002 -10.51834 -10.51155 -10.51067
 Alpha  occ. eigenvalues --   -0.90313  -0.84425  -0.76611  -0.69855  -0.65648
 Alpha  occ. eigenvalues --   -0.54368  -0.51650  -0.50928  -0.47373  -0.45920
 Alpha  occ. eigenvalues --   -0.43072  -0.41383  -0.40703  -0.38553  -0.37451
 Alpha  occ. eigenvalues --   -0.35424
 Alpha virt. eigenvalues --    0.14046   0.16796   0.17726   0.18445   0.20266
 Alpha virt. eigenvalues --    0.21374   0.23075   0.24241   0.24684   0.25414
 Alpha virt. eigenvalues --    0.27341   0.28058   0.29535   0.32063   0.32658
 Alpha virt. eigenvalues --    0.35885   0.54711   0.57423   0.58211   0.58612
 Alpha virt. eigenvalues --    0.59485   0.63793   0.68374   0.68846   0.73201
 Alpha virt. eigenvalues --    0.73565   0.75920   0.78948   0.84874   0.93133
 Alpha virt. eigenvalues --    0.93493   0.97594   0.98008   0.99049   1.00520
 Alpha virt. eigenvalues --    1.01756   1.02364   1.05058   1.06245   1.06688
 Alpha virt. eigenvalues --    1.08085   1.09703   1.10849   1.12631   1.26718
 Alpha virt. eigenvalues --    1.43900   1.45496   1.51094   1.61808   1.69986
 Alpha virt. eigenvalues --    1.73461   1.78220   1.87987   1.91680   1.97465
 Alpha virt. eigenvalues --    1.98311   2.04573   2.09555   2.11185   2.14464
 Alpha virt. eigenvalues --    2.25819   2.26571   2.33014   2.39404   2.41760
 Alpha virt. eigenvalues --    2.43662   2.48596   2.53393   2.54509   2.61382
 Alpha virt. eigenvalues --    2.66553   2.70924   2.80447   4.18360   4.26400
 Alpha virt. eigenvalues --    4.38473   4.49805   4.58917
          Condensed to atoms (all electrons):
               1          2          3          4          5          6
     1  C    5.097471   0.351888  -0.045958   0.004569   0.000285   0.388061
     2  C    0.351888   5.040956   0.367779  -0.049774  -0.004538  -0.033862
     3  C   -0.045958   0.367779   5.054477   0.375915  -0.054695   0.004477
     4  C    0.004569  -0.049774   0.375915   5.012787   0.370007  -0.000137
     5  C    0.000285  -0.004538  -0.054695   0.370007   5.091542   0.000003
     6  H    0.388061  -0.033862   0.004477  -0.000137   0.000003   0.540633
     7  H    0.392758  -0.032969   0.000872  -0.000229   0.000004  -0.027178
     8  H    0.396103  -0.043378  -0.011060   0.000425  -0.000015  -0.028462
     9  H   -0.000003  -0.000097   0.005351  -0.033038   0.389135  -0.000000
    10  H   -0.037883   0.395497  -0.034532   0.000183   0.000642  -0.008624
    11  H   -0.039188   0.401501  -0.050212  -0.005954  -0.001841   0.002246
    12  H   -0.009217  -0.047997   0.397653  -0.036780   0.005246   0.000366
    13  H    0.000775  -0.036814   0.388155  -0.037247  -0.007855  -0.000267
    14  H    0.000081  -0.010268  -0.041738   0.394911  -0.040293  -0.000016
    15  H   -0.000206   0.005912  -0.038519   0.389993  -0.037867   0.000004
    16  H   -0.000016  -0.000859  -0.005120  -0.036939   0.391318  -0.000000
    17  H   -0.000025   0.006483  -0.007095  -0.038064   0.391708   0.000006
               7          8          9         10         11         12
     1  C    0.392758   0.396103  -0.000003  -0.037883  -0.039188  -0.009217
     2  C   -0.032969  -0.043378  -0.000097   0.395497   0.401501  -0.047997
     3  C    0.000872  -0.011060   0.005351  -0.034532  -0.050212   0.397653
     4  C   -0.000229   0.000425  -0.033038   0.000183  -0.005954  -0.036780
     5  C    0.000004  -0.000015   0.389135   0.000642  -0.001841   0.005246
     6  H   -0.027178  -0.028462  -0.000000  -0.008624   0.002246   0.000366
     7  H    0.532788  -0.028979   0.000000   0.004412  -0.009455   0.001499
     8  H   -0.028979   0.539661   0.000000   0.001723   0.004546   0.003199
     9  H    0.000000   0.000000   0.538060   0.000004  -0.000084  -0.000175
    10  H    0.004412   0.001723   0.000004   0.555122  -0.034054   0.004868
    11  H   -0.009455   0.004546  -0.000084  -0.034054   0.561477   0.000818
    12  H    0.001499   0.003199  -0.000175   0.004868   0.000818   0.565233
    13  H   -0.000100   0.001753   0.000090  -0.008317   0.005134  -0.033714
    14  H    0.000007   0.000061  -0.002852   0.000205   0.006510  -0.001195
    15  H   -0.000001  -0.000013  -0.003141  -0.000216   0.000437  -0.004484
    16  H    0.000000   0.000002  -0.028620   0.000265   0.000151   0.000083
    17  H   -0.000000   0.000002  -0.028288  -0.000256   0.001686   0.000040
              13         14         15         16         17
     1  C    0.000775   0.000081  -0.000206  -0.000016  -0.000025
     2  C   -0.036814  -0.010268   0.005912  -0.000859   0.006483
     3  C    0.388155  -0.041738  -0.038519  -0.005120  -0.007095
     4  C   -0.037247   0.394911   0.389993  -0.036939  -0.038064
     5  C   -0.007855  -0.040293  -0.037867   0.391318   0.391708
     6  H   -0.000267  -0.000016   0.000004  -0.000000   0.000006
     7  H   -0.000100   0.000007  -0.000001   0.000000  -0.000000
     8  H    0.001753   0.000061  -0.000013   0.000002   0.000002
     9  H    0.000090  -0.002852  -0.003141  -0.028620  -0.028288
    10  H   -0.008317   0.000205  -0.000216   0.000265  -0.000256
    11  H    0.005134   0.006510   0.000437   0.000151   0.001686
    12  H   -0.033714  -0.001195  -0.004484   0.000083   0.000040
    13  H    0.562804   0.005557  -0.001416   0.005602  -0.000160
    14  H    0.005557   0.568155  -0.034409   0.005351  -0.004425
    15  H   -0.001416  -0.034409   0.569305  -0.004340   0.005304
    16  H    0.005602   0.005351  -0.004340   0.542910  -0.030121
    17  H   -0.000160  -0.004425   0.005304  -0.030121   0.538667
 Mulliken charges:
               1
     1  C   -0.499496
     2  C   -0.309459
     3  C   -0.305750
     4  C   -0.310630
     5  C   -0.492786
     6  H    0.162750
     7  H    0.166570
     8  H    0.164435
     9  H    0.163657
    10  H    0.160960
    11  H    0.156284
    12  H    0.154559
    13  H    0.156020
    14  H    0.154360
    15  H    0.153656
    16  H    0.160334
    17  H    0.164537
 Sum of Mulliken charges =  -0.00000
 Mulliken charges with hydrogens summed into heavy atoms:
               1
     1  C   -0.005742
     2  C    0.007784
     3  C    0.004829
     4  C   -0.002614
     5  C   -0.004258
 Electronic spatial extent (au):  <R**2>=            627.0088
 Charge=             -0.0000 electrons
 Dipole moment (field-independent basis, Debye):
    X=             -0.0083    Y=             -0.0004    Z=              0.0041  Tot=              0.0093
 Quadrupole moment (field-independent basis, Debye-Ang):
   XX=            -35.4074   YY=            -34.5755   ZZ=            -33.9014
   XY=              0.3460   XZ=             -0.0621   YZ=              0.0237
 Traceless Quadrupole moment (field-independent basis, Debye-Ang):
   XX=             -0.7793   YY=              0.0526   ZZ=              0.7267
   XY=              0.3460   XZ=             -0.0621   YZ=              0.0237
 Octapole moment (field-independent basis, Debye-Ang**2):
  XXX=              2.4771  YYY=              0.3782  ZZZ=              0.3279  XYY=             -1.1250
  XXY=              0.4695  XXZ=              0.3823  XZZ=             -0.1338  YZZ=             -0.3470
  YYZ=             -0.4965  XYZ=             -0.7085
 Hexadecapole moment (field-independent basis, Debye-Ang**3):
 XXXX=           -654.4335 YYYY=           -129.7719 ZZZZ=            -79.2779 XXXY=              5.2611
 XXXZ=              2.8502 YYYX=              1.8036 YYYZ=              0.3279 ZZZX=             -2.7160
 ZZZY=              0.0700 XXYY=           -129.1397 XXZZ=           -118.6973 YYZZ=            -36.4006
 XXYZ=             -0.1694 YYXZ=              1.2867 ZZXY=             -0.1507
 N-N= 1.908888802700D+02 E-N=-8.384270314461D+02  KE= 1.966022004695D+02
 Calling FoFJK, ICntrl=      2127 FMM=F ISym2X=0 I1Cent= 0 IOpClX= 0 NMat=1 NMatS=1 NMatT=0.
 ***** Axes restored to original set *****
 -------------------------------------------------------------------
 Center     Atomic                   Forces (Hartrees/Bohr)
 Number     Number              X              Y              Z
 -------------------------------------------------------------------
      1        6           0.024605135    0.024576282   -0.012334187
      2        6          -0.021356086   -0.012297003    0.044956714
      3        6           0.036616595   -0.010866729   -0.041073363
      4        6          -0.033671787    0.037156801   -0.011292482
      5        6          -0.003447475   -0.036208934    0.021294608
      6        1          -0.027241874    0.001963851   -0.019117103
      7        1           0.006121304   -0.032019585   -0.003594510
      8        1          -0.014186356    0.000312380    0.028486965
      9        1           0.032535004    0.006831356   -0.005208099
     10        1          -0.007681052    0.026323845   -0.019095444
     11        1           0.023747800   -0.012542465   -0.020879535
     12        1          -0.007489039   -0.022407578    0.023715174
     13        1          -0.014982973    0.028288302    0.013721937
     14        1           0.013822585   -0.028644295   -0.012741477
     15        1           0.016410329    0.001508550    0.030194655
     16        1          -0.011928077    0.027820047    0.013661189
     17        1          -0.011874032    0.000205174   -0.030695042
 -------------------------------------------------------------------
 Cartesian Forces:  Max     0.044956714 RMS     0.022156814

 GradGradGradGradGradGradGradGradGradGradGradGradGradGradGradGradGradGrad
 Berny optimization.
 FormGI is forming the generalized inverse of G from B-inverse, IUseBI=4.
 Internal  Forces:  Max     0.034533487 RMS     0.013254295
 Search for a local minimum.
 Step number   1 out of a maximum of  102
 All quantities printed in internal units (Hartrees-Bohrs-Radians)
 Mixed Optimization -- RFO/linear search
 Second derivative matrix not updated -- first step.
 ITU=  0
     Eigenvalues ---    0.00233   0.00239   0.00242   0.00243   0.03835
     Eigenvalues ---    0.03840   0.03840   0.04895   0.04896   0.04897
     Eigenvalues ---    0.05719   0.05722   0.05725   0.05730   0.07653
     Eigenvalues ---    0.07657   0.07668   0.11699   0.11702   0.11711
     Eigenvalues ---    0.16000   0.16000   0.16000   0.16000   0.16000
     Eigenvalues ---    0.16000   0.21947   0.21947   0.21949   0.28491
     Eigenvalues ---    0.28534   0.28556   0.28557   0.39790   0.39804
     Eigenvalues ---    0.39863   0.39865   0.39890   0.39898   0.39900
     Eigenvalues ---    0.39922   0.39945   0.39953   0.39958   0.39990
 RFO step:  Lambda=-3.64083791D-02 EMin= 2.32654356D-03
 Linear search not attempted -- first point.
 Iteration  1 RMS(Cart)=  0.06491428 RMS(Int)=  0.00100931
 Iteration  2 RMS(Cart)=  0.00120130 RMS(Int)=  0.00019428
 Iteration  3 RMS(Cart)=  0.00000142 RMS(Int)=  0.00019428
 Iteration  4 RMS(Cart)=  0.00000000 RMS(Int)=  0.00019428
 Variable       Old X    -DE/DX   Delta X   Delta X   Delta X     New X
                                 (Linear)    (Quad)   (Total)
    R1        2.90936   0.01048   0.00000   0.03254   0.03254   2.94190
    R2        1.98392   0.03272   0.00000   0.07514   0.07514   2.05905
    R3        1.98389   0.03245   0.00000   0.07453   0.07453   2.05842
    R4        1.98520   0.03147   0.00000   0.07244   0.07244   2.05765
    R5        2.91077   0.00843   0.00000   0.02624   0.02624   2.93701
    R6        1.98311   0.03313   0.00000   0.07599   0.07599   2.05909
    R7        1.98267   0.03381   0.00000   0.07750   0.07750   2.06017
    R8        2.90987   0.00231   0.00000   0.00718   0.00718   2.91705
    R9        1.98440   0.03345   0.00000   0.07688   0.07688   2.06128
   R10        1.98318   0.03453   0.00000   0.07922   0.07922   2.06239
   R11        2.90940   0.00051   0.00000   0.00157   0.00157   2.91097
   R12        1.98328   0.03410   0.00000   0.07823   0.07823   2.06150
   R13        1.98403   0.03425   0.00000   0.07868   0.07868   2.06271
   R14        1.98359   0.03337   0.00000   0.07659   0.07659   2.06018
   R15        1.98437   0.03314   0.00000   0.07617   0.07617   2.06054
   R16        1.98539   0.03276   0.00000   0.07543   0.07543   2.06082
    A1        1.90992   0.00697   0.00000   0.03612   0.03570   1.94561
    A2        1.90988   0.00420   0.00000   0.02107   0.02076   1.93064
    A3        1.91093   0.00394   0.00000   0.01970   0.01941   1.93034
    A4        1.91129  -0.00542   0.00000  -0.02690  -0.02732   1.88397
    A5        1.91065  -0.00532   0.00000  -0.02650  -0.02690   1.88375
    A6        1.91114  -0.00435   0.00000  -0.02343  -0.02359   1.88755
    A7        1.91085   0.01426   0.00000   0.06406   0.06373   1.97458
    A8        1.91127  -0.00449   0.00000  -0.01443  -0.01490   1.89637
    A9        1.91042  -0.00234   0.00000  -0.00130  -0.00136   1.90906
   A10        1.91005  -0.00257   0.00000  -0.00266  -0.00294   1.90711
   A11        1.91025  -0.00498   0.00000  -0.01936  -0.01984   1.89041
   A12        1.91095   0.00013   0.00000  -0.02630  -0.02662   1.88433
   A13        1.91043   0.01328   0.00000   0.05869   0.05846   1.96888
   A14        1.91119  -0.00321   0.00000  -0.00484  -0.00533   1.90587
   A15        1.91213  -0.00318   0.00000  -0.01016  -0.01001   1.90213
   A16        1.91005  -0.00290   0.00000  -0.00389  -0.00443   1.90562
   A17        1.90948  -0.00454   0.00000  -0.02009  -0.02018   1.88930
   A18        1.91051   0.00055   0.00000  -0.01972  -0.02001   1.89049
   A19        1.91163   0.00765   0.00000   0.03523   0.03507   1.94670
   A20        1.91098  -0.00289   0.00000  -0.01319  -0.01319   1.89778
   A21        1.91005  -0.00056   0.00000   0.00671   0.00653   1.91658
   A22        1.91104  -0.00149   0.00000  -0.00463  -0.00458   1.90646
   A23        1.91045  -0.00240   0.00000  -0.00580  -0.00619   1.90426
   A24        1.90966  -0.00032   0.00000  -0.01837  -0.01844   1.89121
   A25        1.91087   0.00511   0.00000   0.02691   0.02672   1.93758
   A26        1.91124   0.00149   0.00000   0.00711   0.00702   1.91826
   A27        1.91061   0.00302   0.00000   0.01498   0.01484   1.92545
   A28        1.90980  -0.00313   0.00000  -0.01512  -0.01526   1.89454
   A29        1.91050  -0.00385   0.00000  -0.01867  -0.01892   1.89158
   A30        1.91078  -0.00265   0.00000  -0.01523  -0.01526   1.89552
    D1        2.40397   0.00149   0.00000   0.02860   0.02843   2.43240
    D2        0.30976  -0.00135   0.00000   0.00142   0.00146   0.31123
    D3       -1.78528   0.00269   0.00000   0.04329   0.04340  -1.74189
    D4       -1.78492   0.00168   0.00000   0.03062   0.03053  -1.75439
    D5        2.40406  -0.00116   0.00000   0.00344   0.00356   2.40762
    D6        0.30901   0.00288   0.00000   0.04531   0.04549   0.35451
    D7        0.30982   0.00133   0.00000   0.02689   0.02667   0.33649
    D8       -1.78439  -0.00151   0.00000  -0.00029  -0.00030  -1.78469
    D9        2.40375   0.00253   0.00000   0.04158   0.04163   2.44539
   D10        2.51355   0.00210   0.00000   0.03683   0.03667   2.55022
   D11        0.41965  -0.00052   0.00000   0.00859   0.00835   0.42799
   D12       -1.67586   0.00274   0.00000   0.04201   0.04182  -1.63404
   D13       -1.67468   0.00375   0.00000   0.05674   0.05683  -1.61785
   D14        2.51460   0.00113   0.00000   0.02850   0.02851   2.54311
   D15        0.41910   0.00439   0.00000   0.06191   0.06199   0.48108
   D16        0.41951  -0.00071   0.00000   0.01109   0.01127   0.43078
   D17       -1.67439  -0.00333   0.00000  -0.01715  -0.01706  -1.69145
   D18        2.51329  -0.00007   0.00000   0.01627   0.01642   2.52971
   D19        1.25608  -0.00111   0.00000  -0.02690  -0.02717   1.22891
   D20       -0.83963  -0.00221   0.00000  -0.03476  -0.03488  -0.87451
   D21       -2.93269   0.00028   0.00000  -0.00832  -0.00837  -2.94106
   D22       -2.93251   0.00131   0.00000   0.00071   0.00060  -2.93191
   D23        1.25497   0.00021   0.00000  -0.00716  -0.00711   1.24786
   D24       -0.83809   0.00270   0.00000   0.01928   0.01939  -0.81869
   D25       -0.83932  -0.00256   0.00000  -0.03804  -0.03804  -0.87736
   D26       -2.93503  -0.00366   0.00000  -0.04591  -0.04575  -2.98078
   D27        1.25510  -0.00117   0.00000  -0.01947  -0.01924   1.23586
   D28       -3.13964   0.00075   0.00000   0.00792   0.00787  -3.13177
   D29        1.04965   0.00053   0.00000   0.00560   0.00555   1.05520
   D30       -1.04528   0.00101   0.00000   0.01071   0.01075  -1.03453
   D31       -1.04397   0.00100   0.00000   0.01055   0.01052  -1.03345
   D32       -3.13786   0.00078   0.00000   0.00823   0.00820  -3.12966
   D33        1.05039   0.00126   0.00000   0.01335   0.01340   1.06379
   D34        1.04936  -0.00177   0.00000  -0.01832  -0.01833   1.03103
   D35       -1.04453  -0.00199   0.00000  -0.02065  -0.02065  -1.06518
   D36       -3.13946  -0.00151   0.00000  -0.01553  -0.01545   3.12827
         Item               Value     Threshold  Converged?
 Maximum Force            0.034533     0.000450     NO 
 RMS     Force            0.013254     0.000300     NO 
 Maximum Displacement     0.220927     0.001800     NO 
 RMS     Displacement     0.064724     0.001200     NO 
 Predicted change in Energy=-2.034180D-02
 GradGradGradGradGradGradGradGradGradGradGradGradGradGradGradGradGradGrad

                          Input orientation:                          
 ---------------------------------------------------------------------
 Center     Atomic      Atomic             Coordinates (Angstroms)
 Number     Number       Type             X           Y           Z
 ---------------------------------------------------------------------
      1          6           0       -0.063659   -0.023595   -0.022232
      2          6           0        1.138015    0.949418   -0.203360
      3          6           0        1.783825    1.379535    1.143289
      4          6           0        3.309268    1.589681    1.035242
      5          6           0        3.650098    2.846468    0.212314
      6          1           0       -0.877482    0.215957   -0.706005
      7          1           0        0.242953   -1.051362   -0.212471
      8          1           0       -0.451909    0.032023    0.993537
      9          1           0        4.729038    2.981198    0.133094
     10          1           0        0.792120    1.835179   -0.735400
     11          1           0        1.903911    0.468972   -0.812538
     12          1           0        1.579327    0.619189    1.898184
     13          1           0        1.331904    2.317637    1.470129
     14          1           0        3.750293    0.715129    0.554909
     15          1           0        3.740756    1.688095    2.033035
     16          1           0        3.224377    3.729565    0.689653
     17          1           0        3.239166    2.762912   -0.794381
 ---------------------------------------------------------------------
                    Distance matrix (angstroms):
                    1          2          3          4          5
     1  C    0.000000
     2  C    1.556785   0.000000
     3  C    2.596229   1.554199   0.000000
     4  C    3.885556   2.580390   1.543637   0.000000
     5  C    4.699389   3.175239   2.549820   1.540419   0.000000
     6  H    1.089605   2.202917   3.443306   4.737926   5.316190
     7  H    1.089269   2.191880   3.181451   4.234877   5.194435
     8  H    1.088861   2.191355   2.614712   4.071179   5.035660
     9  H    5.658873   4.139659   3.501442   2.183102   1.090201
    10  H    2.167027   1.089625   2.172686   3.087310   3.176304
    11  H    2.176818   1.090194   2.160741   2.577850   3.122815
    12  H    2.607790   2.172624   1.090785   2.163150   3.477215
    13  H    3.107427   2.170296   1.091372   2.151515   2.689941
    14  H    3.927471   2.730176   2.157458   1.090901   2.161022
    15  H    4.650546   3.510181   2.171737   1.091539   2.159878
    16  H    5.040255   3.588816   2.793496   2.169272   1.090390
    17  H    4.389703   2.837765   2.790398   2.174605   1.090541
                    6          7          8          9         10
     6  H    0.000000
     7  H    1.762114   0.000000
     8  H    1.761644   1.763806   0.000000
     9  H    6.307433   6.042012   6.023305   0.000000
    10  H    2.326008   2.984486   2.790735   4.191296   0.000000
    11  H    2.794908   2.330295   3.000453   3.897030   1.763108
    12  H    3.602820   3.005246   2.299798   4.314545   3.005677
    13  H    3.746200   3.920091   2.938225   3.710591   2.321313
    14  H    4.822383   4.001349   4.279899   2.504184   3.416167
    15  H    5.567554   4.978107   4.626184   2.501717   4.047262
    16  H    5.578401   5.706135   5.222954   1.770258   3.396373
    17  H    4.841651   4.885141   4.927317   1.768495   2.617672
                   11         12         13         14         15
    11  H    0.000000
    12  H    2.734215   0.000000
    13  H    2.992545   1.768947   0.000000
    14  H    2.310764   2.554738   3.042082   0.000000
    15  H    3.599659   2.415061   2.552598   1.769636   0.000000
    16  H    3.825137   3.720373   2.486792   3.062935   2.497784
    17  H    2.654317   3.821063   2.993982   2.505045   3.066123
                   16         17
    16  H    0.000000
    17  H    1.771156   0.000000
 Stoichiometry    C5H12
 Framework group  C1[X(C5H12)]
 Deg. of freedom    45
 Full point group                 C1      NOp   1
 Largest Abelian subgroup         C1      NOp   1
 Largest concise Abelian subgroup C1      NOp   1
                         Standard orientation:                         
 ---------------------------------------------------------------------
 Center     Atomic      Atomic             Coordinates (Angstroms)
 Number     Number       Type             X           Y           Z
 ---------------------------------------------------------------------
      1          6           0       -2.479678   -0.077078    0.061914
      2          6           0       -0.980684   -0.497264    0.068205
      3          6           0       -0.024629    0.644310   -0.377105
      4          6           0        1.334054    0.606543    0.354583
      5          6           0        2.188643   -0.591340   -0.101099
      6          1           0       -3.115347   -0.872651   -0.325677
      7          1           0       -2.815876    0.159749    1.070572
      8          1           0       -2.628008    0.803858   -0.560636
      9          1           0        3.141631   -0.615438    0.427836
     10          1           0       -0.855317   -1.351244   -0.596840
     11          1           0       -0.696658   -0.809367    1.073413
     12          1           0       -0.504419    1.606397   -0.192708
     13          1           0        0.161620    0.553688   -1.448642
     14          1           0        1.152213    0.530743    1.427547
     15          1           0        1.883042    1.530393    0.163347
     16          1           0        2.387373   -0.520089   -1.170856
     17          1           0        1.663511   -1.527067    0.093664
 ---------------------------------------------------------------------
 Rotational constants (GHZ):          12.1862377           2.2346275           2.0802921
 Standard basis: 6-31G(d) (6D, 7F)
 There are    99 symmetry adapted cartesian basis functions of A   symmetry.
 There are    99 symmetry adapted basis functions of A   symmetry.
    99 basis functions,   188 primitive gaussians,    99 cartesian basis functions
    21 alpha electrons       21 beta electrons
       nuclear repulsion energy       186.5913882378 Hartrees.
 NAtoms=   17 NActive=   17 NUniq=   17 SFac= 1.00D+00 NAtFMM=   60 NAOKFM=F Big=F
 Integral buffers will be    131072 words long.
 Raffenetti 2 integral format.
 Two-electron integral symmetry is turned on.
 Nuclear repulsion after empirical dispersion term =      186.5910913459 Hartrees.
 One-electron integrals computed using PRISM.
 NBasis=    99 RedAO= T EigKep=  4.60D-03  NBF=    99
 NBsUse=    99 1.00D-06 EigRej= -1.00D+00 NBFU=    99
 Initial guess from the checkpoint file:  "pentane_7.chk"
 B after Tr=    -0.000000   -0.000000   -0.000000
         Rot=    0.999995    0.002249   -0.000161    0.002087 Ang=   0.35 deg.
 ExpMin= 1.61D-01 ExpMax= 3.05D+03 ExpMxC= 4.57D+02 IAcc=2 IRadAn=         4 AccDes= 0.00D+00
 Harris functional with IExCor= 1009 and IRadAn=       4 diagonalized for initial guess.
 HarFok:  IExCor= 1009 AccDes= 0.00D+00 IRadAn=         4 IDoV= 1 UseB2=F ITyADJ=14
 ICtDFT=  3500011 ScaDFX=  1.000000  1.000000  1.000000  1.000000
 FoFCou: FMM=F IPFlag=           0 FMFlag=      100000 FMFlg1=           0
         NFxFlg=           0 DoJE=T BraDBF=F KetDBF=T FulRan=T
         wScrn=  0.000000 ICntrl=       500 IOpCl=  0 I1Cent=   200000004 NGrid=           0
         NMat0=    1 NMatS0=      1 NMatT0=    0 NMatD0=    1 NMtDS0=    0 NMtDT0=    0
 Petite list used in FoFCou.
 Keep R1 ints in memory in canonical form, NReq=15944043.
 Requested convergence on RMS density matrix=1.00D-08 within 128 cycles.
 Requested convergence on MAX density matrix=1.00D-06.
 Requested convergence on             energy=1.00D-06.
 No special actions if energy rises.
 Integral accuracy reduced to 1.0D-05 until final iterations.
 Initial convergence to 1.0D-05 achieved.  Increase integral accuracy.
 SCF Done:  E(RM062X) =  -197.641633808     A.U. after   11 cycles
            NFock= 11  Conv=0.37D-08     -V/T= 2.0093
 Calling FoFJK, ICntrl=      2127 FMM=F ISym2X=0 I1Cent= 0 IOpClX= 0 NMat=1 NMatS=1 NMatT=0.
 ***** Axes restored to original set *****
 -------------------------------------------------------------------
 Center     Atomic                   Forces (Hartrees/Bohr)
 Number     Number              X              Y              Z
 -------------------------------------------------------------------
      1        6           0.009747873    0.008249007   -0.002767160
      2        6          -0.007053424   -0.003379295    0.013210084
      3        6           0.008331514   -0.003395081   -0.011965241
      4        6          -0.009922286    0.010362009   -0.005317509
      5        6          -0.000916472   -0.010238387    0.005385720
      6        1          -0.001601193   -0.000708837   -0.001831136
      7        1          -0.000176868   -0.003041745    0.001356265
      8        1          -0.002560922    0.000254607    0.002742709
      9        1           0.002073026    0.001289917   -0.000857487
     10        1           0.002090248    0.002541982   -0.003212305
     11        1           0.001447290   -0.000534638   -0.004547359
     12        1          -0.000875352   -0.001884651    0.002868837
     13        1          -0.003432395    0.000939268    0.004709058
     14        1           0.002868253   -0.003747556    0.000848227
     15        1           0.001527563   -0.001139994    0.002212442
     16        1          -0.000859509    0.003169993    0.000059661
     17        1          -0.000687347    0.001263402   -0.002894806
 -------------------------------------------------------------------
 Cartesian Forces:  Max     0.013210084 RMS     0.004814229

 GradGradGradGradGradGradGradGradGradGradGradGradGradGradGradGradGradGrad
 Berny optimization.
 Using GEDIIS/GDIIS optimizer.
 FormGI is forming the generalized inverse of G from B-inverse, IUseBI=4.
 Internal  Forces:  Max     0.007202142 RMS     0.001980781
 Search for a local minimum.
 Step number   2 out of a maximum of  102
 All quantities printed in internal units (Hartrees-Bohrs-Radians)
 Mixed Optimization -- RFO/linear search
 Update second derivatives using D2CorX and points    1    2
 DE= -1.94D-02 DEPred=-2.03D-02 R= 9.52D-01
 TightC=F SS=  1.41D+00  RLast= 3.42D-01 DXNew= 5.0454D-01 1.0272D+00
 Trust test= 9.52D-01 RLast= 3.42D-01 DXMaxT set to 5.05D-01
 ITU=  1  0
 Use linear search instead of GDIIS.
     Eigenvalues ---    0.00233   0.00239   0.00242   0.00243   0.03442
     Eigenvalues ---    0.03486   0.03606   0.04778   0.04783   0.04814
     Eigenvalues ---    0.05415   0.05498   0.05504   0.05599   0.08027
     Eigenvalues ---    0.08231   0.08297   0.11998   0.12144   0.12201
     Eigenvalues ---    0.15838   0.16000   0.16000   0.16000   0.16000
     Eigenvalues ---    0.16046   0.21924   0.21977   0.22440   0.28221
     Eigenvalues ---    0.28512   0.28545   0.28692   0.39498   0.39798
     Eigenvalues ---    0.39830   0.39866   0.39890   0.39894   0.39903
     Eigenvalues ---    0.39915   0.39949   0.39955   0.39978   0.40817
 RFO step:  Lambda=-4.27150818D-03 EMin= 2.32953902D-03
 Quartic linear search produced a step of  0.12106.
 Iteration  1 RMS(Cart)=  0.10216257 RMS(Int)=  0.00461725
 Iteration  2 RMS(Cart)=  0.00670639 RMS(Int)=  0.00005711
 Iteration  3 RMS(Cart)=  0.00003720 RMS(Int)=  0.00005025
 Iteration  4 RMS(Cart)=  0.00000000 RMS(Int)=  0.00005025
 Variable       Old X    -DE/DX   Delta X   Delta X   Delta X     New X
                                 (Linear)    (Quad)   (Total)
    R1        2.94190  -0.00720   0.00394  -0.03088  -0.02694   2.91496
    R2        2.05905   0.00219   0.00910  -0.00166   0.00744   2.06649
    R3        2.05842   0.00258   0.00902  -0.00051   0.00852   2.06694
    R4        2.05765   0.00349   0.00877   0.00221   0.01098   2.06863
    R5        2.93701  -0.00602   0.00318  -0.02575  -0.02257   2.91444
    R6        2.05909   0.00297   0.00920   0.00040   0.00959   2.06869
    R7        2.06017   0.00379   0.00938   0.00249   0.01187   2.07204
    R8        2.91705  -0.00568   0.00087  -0.02248  -0.02161   2.89544
    R9        2.06128   0.00346   0.00931   0.00168   0.01099   2.07227
   R10        2.06239   0.00364   0.00959   0.00190   0.01149   2.07389
   R11        2.91097  -0.00467   0.00019  -0.01804  -0.01785   2.89312
   R12        2.06150   0.00379   0.00947   0.00242   0.01189   2.07339
   R13        2.06271   0.00252   0.00953  -0.00110   0.00843   2.07114
   R14        2.06018   0.00227   0.00927  -0.00158   0.00769   2.06788
   R15        2.06054   0.00293   0.00922   0.00028   0.00950   2.07004
   R16        2.06082   0.00284   0.00913   0.00011   0.00925   2.07007
    A1        1.94561   0.00054   0.00432   0.00052   0.00476   1.95037
    A2        1.93064   0.00162   0.00251   0.00948   0.01192   1.94256
    A3        1.93034   0.00084   0.00235   0.00273   0.00503   1.93537
    A4        1.88397  -0.00094  -0.00331  -0.00160  -0.00501   1.87896
    A5        1.88375  -0.00085  -0.00326  -0.00412  -0.00742   1.87633
    A6        1.88755  -0.00137  -0.00286  -0.00768  -0.01058   1.87698
    A7        1.97458  -0.00138   0.00771  -0.00683   0.00079   1.97537
    A8        1.89637   0.00100  -0.00180   0.01214   0.01023   1.90660
    A9        1.90906   0.00059  -0.00016   0.00485   0.00466   1.91373
   A10        1.90711   0.00067  -0.00036   0.00798   0.00752   1.91464
   A11        1.89041   0.00083  -0.00240   0.00836   0.00589   1.89630
   A12        1.88433  -0.00177  -0.00322  -0.02788  -0.03110   1.85323
   A13        1.96888  -0.00036   0.00708  -0.00133   0.00564   1.97452
   A14        1.90587   0.00047  -0.00064   0.00674   0.00596   1.91183
   A15        1.90213   0.00027  -0.00121   0.00417   0.00294   1.90506
   A16        1.90562   0.00049  -0.00054   0.00758   0.00691   1.91253
   A17        1.88930   0.00057  -0.00244   0.00844   0.00596   1.89526
   A18        1.89049  -0.00150  -0.00242  -0.02695  -0.02937   1.86112
   A19        1.94670   0.00126   0.00425   0.00867   0.01280   1.95950
   A20        1.89778   0.00009  -0.00160   0.00441   0.00274   1.90052
   A21        1.91658  -0.00068   0.00079  -0.00349  -0.00285   1.91373
   A22        1.90646  -0.00029  -0.00055   0.00191   0.00131   1.90777
   A23        1.90426   0.00053  -0.00075   0.01033   0.00950   1.91376
   A24        1.89121  -0.00098  -0.00223  -0.02284  -0.02507   1.86614
   A25        1.93758   0.00117   0.00323   0.00584   0.00900   1.94658
   A26        1.91826   0.00146   0.00085   0.00889   0.00968   1.92794
   A27        1.92545   0.00159   0.00180   0.00890   0.01063   1.93608
   A28        1.89454  -0.00129  -0.00185  -0.00653  -0.00844   1.88610
   A29        1.89158  -0.00138  -0.00229  -0.00690  -0.00927   1.88231
   A30        1.89552  -0.00168  -0.00185  -0.01103  -0.01291   1.88260
    D1        2.43240   0.00068   0.00344   0.12880   0.13222   2.56462
    D2        0.31123   0.00003   0.00018   0.11456   0.11471   0.42594
    D3       -1.74189   0.00124   0.00525   0.13835   0.14361  -1.59828
    D4       -1.75439   0.00094   0.00370   0.13350   0.13720  -1.61719
    D5        2.40762   0.00029   0.00043   0.11926   0.11969   2.52732
    D6        0.35451   0.00150   0.00551   0.14305   0.14859   0.50310
    D7        0.33649   0.00083   0.00323   0.13182   0.13504   0.47153
    D8       -1.78469   0.00017  -0.00004   0.11758   0.11753  -1.66716
    D9        2.44539   0.00139   0.00504   0.14137   0.14643   2.59181
   D10        2.55022   0.00078   0.00444   0.14749   0.15191   2.70213
   D11        0.42799   0.00007   0.00101   0.13396   0.13492   0.56292
   D12       -1.63404   0.00145   0.00506   0.16015   0.16519  -1.46884
   D13       -1.61785   0.00162   0.00688   0.16409   0.17100  -1.44685
   D14        2.54311   0.00090   0.00345   0.15056   0.15401   2.69712
   D15        0.48108   0.00229   0.00750   0.17675   0.18428   0.66536
   D16        0.43078   0.00034   0.00136   0.13990   0.14129   0.57207
   D17       -1.69145  -0.00037  -0.00207   0.12638   0.12430  -1.56715
   D18        2.52971   0.00101   0.00199   0.15256   0.15457   2.68428
   D19        1.22891  -0.00085  -0.00329  -0.10216  -0.10547   1.12344
   D20       -0.87451  -0.00134  -0.00422  -0.11287  -0.11711  -0.99162
   D21       -2.94106   0.00019  -0.00101  -0.08580  -0.08684  -3.02789
   D22       -2.93191  -0.00015   0.00007  -0.08911  -0.08901  -3.02092
   D23        1.24786  -0.00064  -0.00086  -0.09982  -0.10065   1.14720
   D24       -0.81869   0.00089   0.00235  -0.07275  -0.07038  -0.88907
   D25       -0.87736  -0.00135  -0.00461  -0.11234  -0.11695  -0.99431
   D26       -2.98078  -0.00184  -0.00554  -0.12305  -0.12859  -3.10937
   D27        1.23586  -0.00031  -0.00233  -0.09598  -0.09831   1.13754
   D28       -3.13177  -0.00014   0.00095  -0.00332  -0.00235  -3.13412
   D29        1.05520  -0.00023   0.00067  -0.00473  -0.00404   1.05116
   D30       -1.03453  -0.00007   0.00130  -0.00230  -0.00096  -1.03549
   D31       -1.03345   0.00058   0.00127   0.00893   0.01022  -1.02323
   D32       -3.12966   0.00049   0.00099   0.00753   0.00853  -3.12114
   D33        1.06379   0.00065   0.00162   0.00995   0.01161   1.07540
   D34        1.03103  -0.00046  -0.00222  -0.01154  -0.01380   1.01723
   D35       -1.06518  -0.00055  -0.00250  -0.01294  -0.01549  -1.08067
   D36        3.12827  -0.00039  -0.00187  -0.01051  -0.01241   3.11586
         Item               Value     Threshold  Converged?
 Maximum Force            0.007202     0.000450     NO 
 RMS     Force            0.001981     0.000300     NO 
 Maximum Displacement     0.356165     0.001800     NO 
 RMS     Displacement     0.101815     0.001200     NO 
 Predicted change in Energy=-2.925457D-03
 GradGradGradGradGradGradGradGradGradGradGradGradGradGradGradGradGradGrad

                          Input orientation:                          
 ---------------------------------------------------------------------
 Center     Atomic      Atomic             Coordinates (Angstroms)
 Number     Number       Type             X           Y           Z
 ---------------------------------------------------------------------
      1          6           0       -0.082055    0.048632   -0.032787
      2          6           0        1.176504    0.927153   -0.186521
      3          6           0        1.830481    1.292103    1.161689
      4          6           0        3.325994    1.602659    1.040743
      5          6           0        3.593213    2.847299    0.190241
      6          1           0       -0.822208    0.261688   -0.809067
      7          1           0        0.165917   -1.014916   -0.093778
      8          1           0       -0.562063    0.220497    0.935902
      9          1           0        4.664552    3.053486    0.105666
     10          1           0        0.914352    1.841183   -0.728922
     11          1           0        1.916495    0.406083   -0.805521
     12          1           0        1.681822    0.472715    1.875155
     13          1           0        1.323645    2.170228    1.581709
     14          1           0        3.832699    0.739930    0.590430
     15          1           0        3.755918    1.739530    2.039564
     16          1           0        3.112348    3.725398    0.634824
     17          1           0        3.194387    2.722331   -0.822328
 ---------------------------------------------------------------------
                    Distance matrix (angstroms):
                    1          2          3          4          5
     1  C    0.000000
     2  C    1.542531   0.000000
     3  C    2.575031   1.542253   0.000000
     4  C    3.896443   2.565695   1.532199   0.000000
     5  C    4.624918   3.109565   2.543535   1.530976   0.000000
     6  H    1.093540   2.196647   3.461560   4.735777   5.213439
     7  H    1.093775   2.191237   3.109551   4.257338   5.171434
     8  H    1.094671   2.186735   2.631270   4.127754   4.972164
     9  H    5.619483   4.095503   3.499945   2.184262   1.094273
    10  H    2.165795   1.094702   2.171449   3.000771   3.005566
    11  H    2.172347   1.096477   2.159246   2.612886   3.124494
    12  H    2.632746   2.170799   1.096599   2.162480   3.482958
    13  H    3.013928   2.166454   1.097453   2.150391   2.746916
    14  H    4.023878   2.773820   2.154091   1.097193   2.158357
    15  H    4.678014   3.502683   2.162907   1.095998   2.161855
    16  H    4.916149   3.500325   2.800303   2.171735   1.095420
    17  H    4.301989   2.774665   2.800378   2.177617   1.095434
                    6          7          8          9         10
     6  H    0.000000
     7  H    1.765714   0.000000
     8  H    1.764735   1.765344   0.000000
     9  H    6.223777   6.068722   6.002717   0.000000
    10  H    2.348802   3.020077   2.752828   4.028674   0.000000
    11  H    2.742509   2.364390   3.034838   3.923114   1.752047
    12  H    3.676921   2.896155   2.445574   4.322979   3.040219
    13  H    3.736713   3.780573   2.788263   3.757726   2.369559
    14  H    4.884206   4.122247   4.438817   2.505896   3.386768
    15  H    5.590882   5.002623   4.708556   2.508397   3.968545
    16  H    5.437172   5.628756   5.086872   1.772234   3.200196
    17  H    4.710411   4.865124   4.843703   1.769808   2.446161
                   11         12         13         14         15
    11  H    0.000000
    12  H    2.691754   0.000000
    13  H    3.026970   1.759531   0.000000
    14  H    2.394154   2.519563   3.053479   0.000000
    15  H    3.640889   2.435925   2.512187   1.762125   0.000000
    16  H    3.810841   3.763612   2.552372   3.071465   2.516177
    17  H    2.645429   3.824270   3.095785   2.516593   3.077603
                   16         17
    16  H    0.000000
    17  H    1.770922   0.000000
 Stoichiometry    C5H12
 Framework group  C1[X(C5H12)]
 Deg. of freedom    45
 Full point group                 C1      NOp   1
 Largest Abelian subgroup         C1      NOp   1
 Largest concise Abelian subgroup C1      NOp   1
                         Standard orientation:                         
 ---------------------------------------------------------------------
 Center     Atomic      Atomic             Coordinates (Angstroms)
 Number     Number       Type             X           Y           Z
 ---------------------------------------------------------------------
      1          6           0       -2.458320   -0.109024    0.019096
      2          6           0       -0.960816   -0.465049    0.119750
      3          6           0       -0.032437    0.685496   -0.319457
      4          6           0        1.358963    0.612962    0.318021
      5          6           0        2.134848   -0.631177   -0.122438
      6          1           0       -3.065525   -0.980779   -0.240083
      7          1           0       -2.836467    0.289307    0.964972
      8          1           0       -2.627963    0.650937   -0.750309
      9          1           0        3.123083   -0.674721    0.345459
     10          1           0       -0.759706   -1.353661   -0.487125
     11          1           0       -0.715522   -0.738624    1.152828
     12          1           0       -0.499141    1.647159   -0.074671
     13          1           0        0.080940    0.660056   -1.410741
     14          1           0        1.249568    0.604658    1.409716
     15          1           0        1.929278    1.513016    0.061397
     16          1           0        2.273186   -0.631453   -1.209088
     17          1           0        1.594840   -1.545141    0.147815
 ---------------------------------------------------------------------
 Rotational constants (GHZ):          11.9703170           2.2882313           2.1062870
 Standard basis: 6-31G(d) (6D, 7F)
 There are    99 symmetry adapted cartesian basis functions of A   symmetry.
 There are    99 symmetry adapted basis functions of A   symmetry.
    99 basis functions,   188 primitive gaussians,    99 cartesian basis functions
    21 alpha electrons       21 beta electrons
       nuclear repulsion energy       187.2580491171 Hartrees.
 NAtoms=   17 NActive=   17 NUniq=   17 SFac= 1.00D+00 NAtFMM=   60 NAOKFM=F Big=F
 Integral buffers will be    131072 words long.
 Raffenetti 2 integral format.
 Two-electron integral symmetry is turned on.
 Nuclear repulsion after empirical dispersion term =      187.2577514901 Hartrees.
 One-electron integrals computed using PRISM.
 NBasis=    99 RedAO= T EigKep=  4.45D-03  NBF=    99
 NBsUse=    99 1.00D-06 EigRej= -1.00D+00 NBFU=    99
 Initial guess from the checkpoint file:  "pentane_7.chk"
 B after Tr=     0.000000    0.000000   -0.000000
         Rot=    0.999929    0.011445   -0.002779    0.001925 Ang=   1.37 deg.
 ExpMin= 1.61D-01 ExpMax= 3.05D+03 ExpMxC= 4.57D+02 IAcc=2 IRadAn=         4 AccDes= 0.00D+00
 Harris functional with IExCor= 1009 and IRadAn=       4 diagonalized for initial guess.
 HarFok:  IExCor= 1009 AccDes= 0.00D+00 IRadAn=         4 IDoV= 1 UseB2=F ITyADJ=14
 ICtDFT=  3500011 ScaDFX=  1.000000  1.000000  1.000000  1.000000
 FoFCou: FMM=F IPFlag=           0 FMFlag=      100000 FMFlg1=           0
         NFxFlg=           0 DoJE=T BraDBF=F KetDBF=T FulRan=T
         wScrn=  0.000000 ICntrl=       500 IOpCl=  0 I1Cent=   200000004 NGrid=           0
         NMat0=    1 NMatS0=      1 NMatT0=    0 NMatD0=    1 NMtDS0=    0 NMtDT0=    0
 Petite list used in FoFCou.
 Keep R1 ints in memory in canonical form, NReq=15944043.
 Requested convergence on RMS density matrix=1.00D-08 within 128 cycles.
 Requested convergence on MAX density matrix=1.00D-06.
 Requested convergence on             energy=1.00D-06.
 No special actions if energy rises.
 Integral accuracy reduced to 1.0D-05 until final iterations.
 Initial convergence to 1.0D-05 achieved.  Increase integral accuracy.
 SCF Done:  E(RM062X) =  -197.645197007     A.U. after   11 cycles
            NFock= 11  Conv=0.31D-08     -V/T= 2.0094
 Calling FoFJK, ICntrl=      2127 FMM=F ISym2X=0 I1Cent= 0 IOpClX= 0 NMat=1 NMatS=1 NMatT=0.
 ***** Axes restored to original set *****
 -------------------------------------------------------------------
 Center     Atomic                   Forces (Hartrees/Bohr)
 Number     Number              X              Y              Z
 -------------------------------------------------------------------
      1        6           0.002499948    0.002825493   -0.000319431
      2        6          -0.002321573   -0.001211566    0.003703343
      3        6           0.001197927   -0.000606588   -0.003777029
      4        6          -0.001912599    0.002034397   -0.001852198
      5        6           0.000161912   -0.001885320    0.000836546
      6        1           0.000533604   -0.001026076   -0.000538296
      7        1           0.000207681    0.000040140    0.001589672
      8        1          -0.000762292    0.000917937   -0.000255781
      9        1          -0.000405376    0.000142961    0.000045797
     10        1           0.001120725    0.000907299    0.000307942
     11        1          -0.000327802   -0.000504781   -0.001246086
     12        1           0.000549011   -0.001086939   -0.000494338
     13        1          -0.001728482   -0.000922802    0.001470948
     14        1           0.000476788   -0.000507870    0.000763902
     15        1           0.000175179    0.000125691   -0.000098764
     16        1          -0.000008812    0.000296650   -0.000431484
     17        1           0.000544161    0.000461375    0.000295256
 -------------------------------------------------------------------
 Cartesian Forces:  Max     0.003777029 RMS     0.001299880

 GradGradGradGradGradGradGradGradGradGradGradGradGradGradGradGradGradGrad
 Berny optimization.
 Using GEDIIS/GDIIS optimizer.
 FormGI is forming the generalized inverse of G from B-inverse, IUseBI=4.
 Internal  Forces:  Max     0.003701222 RMS     0.000832223
 Search for a local minimum.
 Step number   3 out of a maximum of  102
 All quantities printed in internal units (Hartrees-Bohrs-Radians)
 Mixed Optimization -- En-DIIS/RFO-DIIS
 Update second derivatives using D2CorX and points    2    3
 DE= -3.56D-03 DEPred=-2.93D-03 R= 1.22D+00
 TightC=F SS=  1.41D+00  RLast= 6.92D-01 DXNew= 8.4853D-01 2.0747D+00
 Trust test= 1.22D+00 RLast= 6.92D-01 DXMaxT set to 8.49D-01
 ITU=  1  1  0
 Use linear search instead of GDIIS.
     Eigenvalues ---    0.00112   0.00237   0.00242   0.00288   0.03367
     Eigenvalues ---    0.03401   0.03488   0.04624   0.04750   0.04908
     Eigenvalues ---    0.05335   0.05392   0.05436   0.05511   0.08204
     Eigenvalues ---    0.08366   0.08377   0.12154   0.12230   0.12261
     Eigenvalues ---    0.15656   0.16000   0.16000   0.16000   0.16045
     Eigenvalues ---    0.16121   0.21314   0.21957   0.22414   0.26864
     Eigenvalues ---    0.28530   0.28558   0.29456   0.39606   0.39824
     Eigenvalues ---    0.39849   0.39870   0.39888   0.39895   0.39903
     Eigenvalues ---    0.39916   0.39954   0.39972   0.39978   0.42225
 RFO step:  Lambda=-2.08511471D-03 EMin= 1.12306913D-03
 Quartic linear search produced a step of  1.12443.
 Iteration  1 RMS(Cart)=  0.13478940 RMS(Int)=  0.04468234
 Iteration  2 RMS(Cart)=  0.06211527 RMS(Int)=  0.00300723
 Iteration  3 RMS(Cart)=  0.00326752 RMS(Int)=  0.00009145
 Iteration  4 RMS(Cart)=  0.00000822 RMS(Int)=  0.00009121
 Iteration  5 RMS(Cart)=  0.00000000 RMS(Int)=  0.00009121
 Variable       Old X    -DE/DX   Delta X   Delta X   Delta X     New X
                                 (Linear)    (Quad)   (Total)
    R1        2.91496  -0.00354  -0.03029  -0.00466  -0.03495   2.88001
    R2        2.06649  -0.00018   0.00836  -0.00436   0.00400   2.07049
    R3        2.06694  -0.00008   0.00958  -0.00459   0.00499   2.07192
    R4        2.06863   0.00025   0.01235  -0.00465   0.00770   2.07633
    R5        2.91444  -0.00370  -0.02538  -0.00840  -0.03378   2.88065
    R6        2.06869   0.00034   0.01079  -0.00341   0.00738   2.07606
    R7        2.07204   0.00072   0.01335  -0.00310   0.01025   2.08229
    R8        2.89544  -0.00078  -0.02430   0.00851  -0.01580   2.87964
    R9        2.07227   0.00042   0.01235  -0.00389   0.00847   2.08074
   R10        2.07389   0.00062   0.01292  -0.00328   0.00964   2.08353
   R11        2.89312  -0.00116  -0.02007   0.00381  -0.01626   2.87687
   R12        2.07339   0.00031   0.01337  -0.00490   0.00847   2.08187
   R13        2.07114  -0.00001   0.00948  -0.00417   0.00531   2.07645
   R14        2.06788  -0.00037   0.00865  -0.00535   0.00331   2.07118
   R15        2.07004   0.00007   0.01069  -0.00452   0.00616   2.07621
   R16        2.07007  -0.00052   0.01040  -0.00695   0.00345   2.07352
    A1        1.95037   0.00033   0.00535   0.00289   0.00818   1.95855
    A2        1.94256  -0.00006   0.01340  -0.00784   0.00549   1.94805
    A3        1.93537  -0.00012   0.00565  -0.00513   0.00051   1.93588
    A4        1.87896   0.00000  -0.00563   0.00468  -0.00106   1.87790
    A5        1.87633  -0.00007  -0.00835   0.00389  -0.00446   1.87187
    A6        1.87698  -0.00009  -0.01189   0.00213  -0.00978   1.86720
    A7        1.97537  -0.00196   0.00088  -0.01494  -0.01408   1.96128
    A8        1.90660   0.00080   0.01150   0.00099   0.01245   1.91905
    A9        1.91373   0.00067   0.00524   0.00386   0.00911   1.92283
   A10        1.91464   0.00047   0.00846  -0.00288   0.00556   1.92019
   A11        1.89630   0.00059   0.00662  -0.00011   0.00653   1.90283
   A12        1.85323  -0.00049  -0.03497   0.01502  -0.01992   1.83330
   A13        1.97452   0.00111   0.00634   0.00889   0.01502   1.98954
   A14        1.91183  -0.00065   0.00670  -0.01590  -0.00933   1.90249
   A15        1.90506  -0.00053   0.00330  -0.00399  -0.00105   1.90401
   A16        1.91253  -0.00018   0.00777  -0.00591   0.00188   1.91441
   A17        1.89526   0.00026   0.00670   0.00902   0.01558   1.91084
   A18        1.86112  -0.00008  -0.03303   0.00816  -0.02487   1.83625
   A19        1.95950   0.00140   0.01440   0.00671   0.02085   1.98036
   A20        1.90052  -0.00023   0.00308   0.00235   0.00512   1.90564
   A21        1.91373  -0.00050  -0.00321  -0.00502  -0.00838   1.90535
   A22        1.90777  -0.00023   0.00148   0.00347   0.00467   1.91245
   A23        1.91376  -0.00046   0.01068  -0.01228  -0.00158   1.91218
   A24        1.86614  -0.00005  -0.02819   0.00483  -0.02335   1.84279
   A25        1.94658  -0.00002   0.01012  -0.00583   0.00421   1.95079
   A26        1.92794   0.00056   0.01088   0.00070   0.01148   1.93942
   A27        1.93608   0.00062   0.01195   0.00073   0.01257   1.94865
   A28        1.88610  -0.00032  -0.00949   0.00093  -0.00864   1.87746
   A29        1.88231  -0.00038  -0.01042   0.00037  -0.01013   1.87219
   A30        1.88260  -0.00052  -0.01452   0.00339  -0.01126   1.87135
    D1        2.56462   0.00079   0.14867   0.15462   0.30328   2.86790
    D2        0.42594   0.00095   0.12898   0.16787   0.29682   0.72276
    D3       -1.59828   0.00071   0.16148   0.14709   0.30854  -1.28973
    D4       -1.61719   0.00098   0.15427   0.15715   0.31145  -1.30573
    D5        2.52732   0.00113   0.13459   0.17040   0.30500   2.83232
    D6        0.50310   0.00090   0.16708   0.14962   0.31672   0.81982
    D7        0.47153   0.00075   0.15184   0.15123   0.30309   0.77461
    D8       -1.66716   0.00090   0.13215   0.16448   0.29663  -1.37052
    D9        2.59181   0.00067   0.16465   0.14371   0.30836   2.90017
   D10        2.70213   0.00056   0.17081   0.09136   0.26216   2.96429
   D11        0.56292   0.00049   0.15171   0.10447   0.25621   0.81913
   D12       -1.46884   0.00125   0.18575   0.10591   0.29161  -1.17723
   D13       -1.44685   0.00058   0.19228   0.08016   0.27244  -1.17440
   D14        2.69712   0.00051   0.17317   0.09327   0.26650   2.96362
   D15        0.66536   0.00127   0.20721   0.09470   0.30190   0.96726
   D16        0.57207   0.00058   0.15887   0.09647   0.25532   0.82739
   D17       -1.56715   0.00051   0.13976   0.10958   0.24937  -1.31777
   D18        2.68428   0.00127   0.17380   0.11101   0.28477   2.96905
   D19        1.12344   0.00004  -0.11859   0.05375  -0.06471   1.05873
   D20       -0.99162  -0.00043  -0.13168   0.04342  -0.08825  -1.07987
   D21       -3.02789   0.00005  -0.09764   0.03909  -0.05853  -3.08643
   D22       -3.02092  -0.00016  -0.10009   0.03507  -0.06489  -3.08581
   D23        1.14720  -0.00062  -0.11318   0.02474  -0.08842   1.05878
   D24       -0.88907  -0.00015  -0.07914   0.02041  -0.05871  -0.94778
   D25       -0.99431  -0.00020  -0.13150   0.04664  -0.08489  -1.07920
   D26       -3.10937  -0.00066  -0.14459   0.03631  -0.10843   3.06539
   D27        1.13754  -0.00019  -0.11054   0.03198  -0.07872   1.05883
   D28       -3.13412  -0.00026  -0.00264  -0.04683  -0.04947   3.09959
   D29        1.05116  -0.00022  -0.00454  -0.04463  -0.04915   1.00201
   D30       -1.03549  -0.00034  -0.00108  -0.04979  -0.05087  -1.08637
   D31       -1.02323   0.00021   0.01149  -0.03709  -0.02554  -1.04877
   D32       -3.12114   0.00025   0.00959  -0.03488  -0.02522   3.13683
   D33        1.07540   0.00014   0.01305  -0.04004  -0.02694   1.04846
   D34        1.01723  -0.00025  -0.01552  -0.03630  -0.05188   0.96535
   D35       -1.08067  -0.00021  -0.01742  -0.03409  -0.05156  -1.13224
   D36        3.11586  -0.00032  -0.01396  -0.03925  -0.05329   3.06257
         Item               Value     Threshold  Converged?
 Maximum Force            0.003701     0.000450     NO 
 RMS     Force            0.000832     0.000300     NO 
 Maximum Displacement     0.817128     0.001800     NO 
 RMS     Displacement     0.190518     0.001200     NO 
 Predicted change in Energy=-4.049230D-03
 GradGradGradGradGradGradGradGradGradGradGradGradGradGradGradGradGradGrad

                          Input orientation:                          
 ---------------------------------------------------------------------
 Center     Atomic      Atomic             Coordinates (Angstroms)
 Number     Number       Type             X           Y           Z
 ---------------------------------------------------------------------
      1          6           0       -0.121365    0.167787   -0.017331
      2          6           0        1.229042    0.851943   -0.193457
      3          6           0        1.906197    1.150959    1.139125
      4          6           0        3.354169    1.607784    1.009613
      5          6           0        3.515469    2.891034    0.206576
      6          1           0       -0.724450    0.199983   -0.931505
      7          1           0       -0.006775   -0.884834    0.267243
      8          1           0       -0.706363    0.652903    0.776192
      9          1           0        4.561173    3.216871    0.166618
     10          1           0        1.107181    1.779243   -0.769824
     11          1           0        1.897358    0.222340   -0.802669
     12          1           0        1.855685    0.254297    1.776164
     13          1           0        1.324652    1.919437    1.674731
     14          1           0        3.947079    0.804230    0.544372
     15          1           0        3.780075    1.745783    2.013077
     16          1           0        2.929562    3.709693    0.646589
     17          1           0        3.173313    2.766545   -0.828513
 ---------------------------------------------------------------------
                    Distance matrix (angstroms):
                    1          2          3          4          5
     1  C    0.000000
     2  C    1.524037   0.000000
     3  C    2.532790   1.524377   0.000000
     4  C    3.899685   2.556333   1.523839   0.000000
     5  C    4.548931   3.089606   2.547011   1.522373   0.000000
     6  H    1.095656   2.187669   3.480254   4.731276   5.149164
     7  H    1.096414   2.180798   2.926447   4.249730   5.164016
     8  H    1.098744   2.173851   2.684260   4.177823   4.812230
     9  H    5.590788   4.101907   3.501808   2.180977   1.096022
    10  H    2.161564   1.098605   2.162696   2.871368   2.826533
    11  H    2.166789   1.101901   2.152435   2.706681   3.280059
    12  H    2.670737   2.151574   1.101079   2.159857   3.488678
    13  H    2.832369   2.153790   1.102555   2.158344   2.810544
    14  H    4.156056   2.816806   2.153869   1.101677   2.157579
    15  H    4.672672   3.489343   2.151517   1.098808   2.155241
    16  H    4.721657   3.429895   2.799462   2.174879   1.098681
    17  H    4.273928   2.801640   2.843818   2.180400   1.097259
                    6          7          8          9         10
     6  H    0.000000
     7  H    1.768864   0.000000
     8  H    1.766831   1.764394   0.000000
     9  H    6.184278   6.140054   5.890029   0.000000
    10  H    2.423855   3.068177   2.635858   3.856652   0.000000
    11  H    2.625067   2.448728   3.075313   4.123426   1.746254
    12  H    3.740524   2.653906   2.779014   4.322864   3.060682
    13  H    3.734676   3.408468   2.556658   3.799054   2.458210
    14  H    4.936245   4.308445   4.661669   2.518064   3.277619
    15  H    5.599179   4.930346   4.780418   2.486690   3.858759
    16  H    5.306623   5.465863   4.751917   1.770706   3.008977
    17  H    4.668019   4.964494   4.700473   1.766136   2.290658
                   11         12         13         14         15
    11  H    0.000000
    12  H    2.579368   0.000000
    13  H    3.057064   1.750708   0.000000
    14  H    2.520808   2.488708   3.065701   0.000000
    15  H    3.714018   2.446208   2.484701   1.752571   0.000000
    16  H    3.915026   3.790636   2.614924   3.080180   2.539214
    17  H    2.846350   3.851218   3.225115   2.516786   3.079732
                   16         17
    16  H    0.000000
    17  H    1.767730   0.000000
 Stoichiometry    C5H12
 Framework group  C1[X(C5H12)]
 Deg. of freedom    45
 Full point group                 C1      NOp   1
 Largest Abelian subgroup         C1      NOp   1
 Largest concise Abelian subgroup C1      NOp   1
                         Standard orientation:                         
 ---------------------------------------------------------------------
 Center     Atomic      Atomic             Coordinates (Angstroms)
 Number     Number       Type             X           Y           Z
 ---------------------------------------------------------------------
      1          6           0       -2.425641   -0.149463   -0.071672
[...]
 ! A21   A(3,4,15)             108.9286         -DE/DX =    0.0                 !
 ! A22   A(5,4,14)             109.4719         -DE/DX =    0.0                 !
 ! A23   A(5,4,15)             109.2041         -DE/DX =    0.0                 !
 ! A24   A(14,4,15)            106.3192         -DE/DX =    0.0                 !
 ! A25   A(4,5,9)              111.2029         -DE/DX =    0.0                 !
 ! A26   A(4,5,16)             110.7728         -DE/DX =    0.0                 !
 ! A27   A(4,5,17)             111.6252         -DE/DX =    0.0                 !
 ! A28   A(9,5,16)             107.8333         -DE/DX =    0.0                 !
 ! A29   A(9,5,17)             107.5338         -DE/DX =    0.0                 !
 ! A30   A(16,5,17)            107.6975         -DE/DX =    0.0                 !
 ! D1    D(6,1,2,3)            179.4468         -DE/DX =    0.0                 !
 ! D2    D(6,1,2,10)            57.3113         -DE/DX =    0.0                 !
 ! D3    D(6,1,2,11)           -58.9759         -DE/DX =    0.0                 !
 ! D4    D(7,1,2,3)            -60.1674         -DE/DX =    0.0                 !
 ! D5    D(7,1,2,10)           177.6971         -DE/DX =    0.0                 !
 ! D6    D(7,1,2,11)            61.4099         -DE/DX =    0.0                 !
 ! D7    D(8,1,2,3)             59.2115         -DE/DX =    0.0                 !
 ! D8    D(8,1,2,10)           -62.924          -DE/DX =    0.0                 !
 ! D9    D(8,1,2,11)          -179.2111         -DE/DX =    0.0                 !
 ! D10   D(1,2,3,4)            174.971          -DE/DX =    0.0                 !
 ! D11   D(1,2,3,12)            52.9163         -DE/DX =    0.0                 !
 ! D12   D(1,2,3,13)           -62.5306         -DE/DX =    0.0                 !
 ! D13   D(10,2,3,4)           -63.2035         -DE/DX =    0.0                 !
 ! D14   D(10,2,3,12)          174.7418         -DE/DX =    0.0                 !
 ! D15   D(10,2,3,13)           59.295          -DE/DX =    0.0                 !
 ! D16   D(11,2,3,4)            53.0388         -DE/DX =    0.0                 !
 ! D17   D(11,2,3,12)          -69.0159         -DE/DX =    0.0                 !
 ! D18   D(11,2,3,13)          175.5373         -DE/DX =    0.0                 !
 ! D19   D(2,3,4,5)             61.7304         -DE/DX =    0.0                 !
 ! D20   D(2,3,4,14)           -60.6742         -DE/DX =    0.0                 !
 ! D21   D(2,3,4,15)          -176.3525         -DE/DX =    0.0                 !
 ! D22   D(12,3,4,5)          -176.4182         -DE/DX =    0.0                 !
 ! D23   D(12,3,4,14)           61.1772         -DE/DX =    0.0                 !
 ! D24   D(12,3,4,15)          -54.501          -DE/DX =    0.0                 !
 ! D25   D(13,3,4,5)           -60.6334         -DE/DX =    0.0                 !
 ! D26   D(13,3,4,14)          176.962          -DE/DX =    0.0                 !
 ! D27   D(13,3,4,15)           61.2837         -DE/DX =    0.0                 !
 ! D28   D(3,4,5,9)            174.5606         -DE/DX =    0.0                 !
 ! D29   D(3,4,5,16)            54.6614         -DE/DX =    0.0                 !
 ! D30   D(3,4,5,17)           -65.3466         -DE/DX =    0.0                 !
 ! D31   D(14,4,5,9)           -63.2274         -DE/DX =    0.0                 !
 ! D32   D(14,4,5,16)          176.8735         -DE/DX =    0.0                 !
 ! D33   D(14,4,5,17)           56.8654         -DE/DX =    0.0                 !
 ! D34   D(15,4,5,9)            52.7968         -DE/DX =    0.0                 !
 ! D35   D(15,4,5,16)          -67.1023         -DE/DX =    0.0                 !
 ! D36   D(15,4,5,17)          172.8896         -DE/DX =    0.0                 !
 --------------------------------------------------------------------------------
 GradGradGradGradGradGradGradGradGradGradGradGradGradGradGradGradGradGrad

                          Input orientation:                          
 ---------------------------------------------------------------------
 Center     Atomic      Atomic             Coordinates (Angstroms)
 Number     Number       Type             X           Y           Z
 ---------------------------------------------------------------------
      1          6           0       -0.149279    0.209560   -0.009515
      2          6           0        1.236876    0.819813   -0.202881
      3          6           0        1.938668    1.096914    1.126665
      4          6           0        3.378246    1.595755    0.981104
      5          6           0        3.491234    2.924294    0.234507
      6          1           0       -0.645978    0.024506   -0.966287
      7          1           0       -0.085312   -0.743292    0.526581
      8          1           0       -0.789470    0.876829    0.577524
      9          1           0        4.521271    3.292382    0.235660
     10          1           0        1.146455    1.749706   -0.776773
     11          1           0        1.859466    0.144078   -0.804754
     12          1           0        1.935691    0.176726    1.725920
     13          1           0        1.354010    1.835167    1.693959
     14          1           0        3.972613    0.832534    0.461982
     15          1           0        3.819685    1.704069    1.978761
     16          1           0        2.861200    3.688532    0.703547
     17          1           0        3.176624    2.828427   -0.809001
 ---------------------------------------------------------------------
                    Distance matrix (angstroms):
                    1          2          3          4          5
     1  C    0.000000
     2  C    1.526836   0.000000
     3  C    2.537287   1.528721   0.000000
     4  C    3.917435   2.566977   1.530495   0.000000
     5  C    4.547820   3.114848   2.558461   1.528133   0.000000
     6  H    1.093786   2.181844   3.494411   4.738727   5.192996
     7  H    1.095178   2.173383   2.800528   4.204042   5.131099
     8  H    1.095311   2.172178   2.791546   4.248480   4.757541
     9  H    5.601602   4.134388   3.504826   2.177323   1.093831
    10  H    2.153988   1.096462   2.162594   2.845123   2.810753
    11  H    2.161424   1.098403   2.155121   2.757416   3.387083
    12  H    2.712916   2.149924   1.098118   2.156237   3.491870
    13  H    2.793618   2.154684   1.099394   2.159401   2.807833
    14  H    4.195284   2.815397   2.156069   1.097846   2.158456
    15  H    4.683960   3.494620   2.152424   1.096322   2.153893
    16  H    4.655608   3.419003   2.783267   2.173497   1.095901
    17  H    4.308048   2.857365   2.877060   2.182798   1.094110
                    6          7          8          9         10
     6  H    0.000000
     7  H    1.769891   0.000000
     8  H    1.769293   1.767265   0.000000
     9  H    6.230903   6.131224   5.844290   0.000000
    10  H    2.495005   3.070997   2.518698   3.846329   0.000000
    11  H    2.513492   2.518341   3.076439   4.251998   1.757046
    12  H    3.733117   2.523747   3.038990   4.314326   3.059515
    13  H    3.788846   3.175353   2.599874   3.779108   2.480907
    14  H    4.901454   4.353638   4.763691   2.530435   3.219144
    15  H    5.606817   4.831915   4.887954   2.460358   3.839428
    16  H    5.339825   5.324877   4.609657   1.769657   2.981735
    17  H    4.743312   5.018086   4.632611   1.764835   2.299188
                   11         12         13         14         15
    11  H    0.000000
    12  H    2.532032   0.000000
    13  H    3.059222   1.757784   0.000000
    14  H    2.558121   2.485292   3.062699   0.000000
    15  H    3.744861   2.438471   2.485529   1.756013   0.000000
    16  H    3.980150   3.772876   2.586020   3.074137   2.546165
    17  H    2.990093   3.872629   3.251661   2.496515   3.073976
                   16         17
    16  H    0.000000
    17  H    1.768353   0.000000
 Stoichiometry    C5H12
 Framework group  C1[X(C5H12)]
 Deg. of freedom    45
 Full point group                 C1      NOp   1
 Largest Abelian subgroup         C1      NOp   1
 Largest concise Abelian subgroup C1      NOp   1
                         Standard orientation:                         
 ---------------------------------------------------------------------
 Center     Atomic      Atomic             Coordinates (Angstroms)
 Number     Number       Type             X           Y           Z
 ---------------------------------------------------------------------
      1          6           0       -2.425796   -0.166336   -0.107288
      2          6           0       -0.971108   -0.376792    0.306015
      3          6           0       -0.049768    0.713737   -0.240673
      4          6           0        1.397070    0.612009    0.247922
      5          6           0        2.092085   -0.683740   -0.168228
      6          1           0       -3.074229   -0.957046    0.280888
      7          1           0       -2.803086    0.791883    0.265383
      8          1           0       -2.522768   -0.158052   -1.198267
      9          1           0        3.148135   -0.675342    0.116645
     10          1           0       -0.633458   -1.359334   -0.044460
     11          1           0       -0.895432   -0.396321    1.401634
     12          1           0       -0.456675    1.693858    0.041551
     13          1           0       -0.065423    0.679132   -1.339410
     14          1           0        1.414371    0.701511    1.341977
     15          1           0        1.964341    1.466177   -0.140048
     16          1           0        2.038458   -0.822165   -1.254028
     17          1           0        1.630869   -1.557567    0.301648
 ---------------------------------------------------------------------
 Rotational constants (GHZ):          11.6455477           2.3192948           2.1287767

 **********************************************************************

            Population analysis using the SCF density.

 **********************************************************************

 Orbital symmetries:
       Occupied  (A) (A) (A) (A) (A) (A) (A) (A) (A) (A) (A) (A)
                 (A) (A) (A) (A) (A) (A) (A) (A) (A)
       Virtual   (A) (A) (A) (A) (A) (A) (A) (A) (A) (A) (A) (A)
                 (A) (A) (A) (A) (A) (A) (A) (A) (A) (A) (A) (A)
                 (A) (A) (A) (A) (A) (A) (A) (A) (A) (A) (A) (A)
                 (A) (A) (A) (A) (A) (A) (A) (A) (A) (A) (A) (A)
                 (A) (A) (A) (A) (A) (A) (A) (A) (A) (A) (A) (A)
                 (A) (A) (A) (A) (A) (A) (A) (A) (A) (A) (A) (A)
                 (A) (A) (A) (A) (A) (A)
 The electronic state is 1-A.
 Alpha  occ. eigenvalues --  -10.53450 -10.53398 -10.53247 -10.52791 -10.52763
 Alpha  occ. eigenvalues --   -0.89803  -0.83964  -0.76095  -0.69004  -0.64014
 Alpha  occ. eigenvalues --   -0.53522  -0.51072  -0.49691  -0.47334  -0.44477
 Alpha  occ. eigenvalues --   -0.42961  -0.41507  -0.39737  -0.37550  -0.37416
 Alpha  occ. eigenvalues --   -0.36510
 Alpha virt. eigenvalues --    0.13228   0.15992   0.17200   0.17717   0.20805
 Alpha virt. eigenvalues --    0.21533   0.21651   0.22954   0.23455   0.23663
 Alpha virt. eigenvalues --    0.24851   0.26244   0.28979   0.29779   0.31109
 Alpha virt. eigenvalues --    0.32578   0.54508   0.55735   0.57926   0.58926
 Alpha virt. eigenvalues --    0.60059   0.62764   0.64136   0.72527   0.73227
 Alpha virt. eigenvalues --    0.74955   0.76247   0.78287   0.85565   0.90985
 Alpha virt. eigenvalues --    0.93544   0.94146   0.95245   0.96814   0.97484
 Alpha virt. eigenvalues --    0.98589   0.99187   1.02375   1.03247   1.03891
 Alpha virt. eigenvalues --    1.04665   1.05851   1.09011   1.11913   1.31320
 Alpha virt. eigenvalues --    1.46895   1.48586   1.49954   1.60938   1.63731
 Alpha virt. eigenvalues --    1.72568   1.73617   1.86996   1.89984   1.96552
 Alpha virt. eigenvalues --    1.99760   2.02210   2.04323   2.05549   2.09682
 Alpha virt. eigenvalues --    2.19540   2.22822   2.29997   2.35669   2.36943
 Alpha virt. eigenvalues --    2.40407   2.40910   2.45403   2.49541   2.60317
 Alpha virt. eigenvalues --    2.64872   2.72302   2.80070   4.15590   4.25023
 Alpha virt. eigenvalues --    4.36073   4.45804   4.56306
          Condensed to atoms (all electrons):
               1          2          3          4          5          6
     1  C    5.093074   0.363914  -0.049895   0.004308   0.000129   0.381152
     2  C    0.363914   5.018961   0.375577  -0.047166  -0.004459  -0.030134
     3  C   -0.049895   0.375577   5.037418   0.372974  -0.052566   0.004376
     4  C    0.004308  -0.047166   0.372974   5.011229   0.361774  -0.000143
     5  C    0.000129  -0.004459  -0.052566   0.361774   5.106516   0.000005
     6  H    0.381152  -0.030134   0.004376  -0.000143   0.000005   0.548359
     7  H    0.384239  -0.036356  -0.004689  -0.000033   0.000003  -0.028511
     8  H    0.384231  -0.036525  -0.004266   0.000082  -0.000016  -0.028622
     9  H   -0.000001   0.000116   0.004491  -0.030222   0.382426  -0.000000
    10  H   -0.038133   0.386614  -0.038280  -0.005034   0.003372  -0.002657
    11  H   -0.038042   0.386756  -0.044762  -0.001984  -0.000949  -0.002717
    12  H   -0.003668  -0.043541   0.385049  -0.035869   0.005099   0.000022
    13  H   -0.002772  -0.042355   0.380548  -0.038114  -0.005950  -0.000059
    14  H    0.000002  -0.006544  -0.039807   0.385477  -0.040736  -0.000000
    15  H   -0.000137   0.004907  -0.036129   0.387237  -0.039780   0.000002
    16  H   -0.000038  -0.000918  -0.003614  -0.038636   0.383488   0.000000
    17  H   -0.000041   0.003349  -0.005573  -0.034058   0.384345   0.000005
               7          8          9         10         11         12
     1  C    0.384239   0.384231  -0.000001  -0.038133  -0.038042  -0.003668
     2  C   -0.036356  -0.036525   0.000116   0.386614   0.386756  -0.043541
     3  C   -0.004689  -0.004266   0.004491  -0.038280  -0.044762   0.385049
     4  C   -0.000033   0.000082  -0.030222  -0.005034  -0.001984  -0.035869
     5  C    0.000003  -0.000016   0.382426   0.003372  -0.000949   0.005099
     6  H   -0.028511  -0.028622  -0.000000  -0.002657  -0.002717   0.000022
     7  H    0.555479  -0.030422   0.000000   0.004860  -0.004299   0.004919
     8  H   -0.030422   0.555616  -0.000000  -0.004268   0.004895  -0.000371
     9  H    0.000000  -0.000000   0.546653  -0.000019  -0.000037  -0.000129
    10  H    0.004860  -0.004268  -0.000019   0.577425  -0.036313   0.005360
    11  H   -0.004299   0.004895  -0.000037  -0.036313   0.583785  -0.004200
    12  H    0.004919  -0.000371  -0.000129   0.005360  -0.004200   0.583825
    13  H   -0.000302   0.004200  -0.000039  -0.005393   0.005629  -0.034656
    14  H    0.000003   0.000006  -0.002186  -0.000110   0.005188  -0.003202
    15  H   -0.000005   0.000003  -0.003894  -0.000068   0.000027  -0.003620
    16  H    0.000000   0.000002  -0.028378   0.000433   0.000113   0.000023
    17  H   -0.000001   0.000008  -0.028701   0.000698   0.000546  -0.000060
              13         14         15         16         17
     1  C   -0.002772   0.000002  -0.000137  -0.000038  -0.000041
     2  C   -0.042355  -0.006544   0.004907  -0.000918   0.003349
     3  C    0.380548  -0.039807  -0.036129  -0.003614  -0.005573
     4  C   -0.038114   0.385477   0.387237  -0.038636  -0.034058
     5  C   -0.005950  -0.040736  -0.039780   0.383488   0.384345
     6  H   -0.000059  -0.000000   0.000002   0.000000   0.000005
     7  H   -0.000302   0.000003  -0.000005   0.000000  -0.000001
     8  H    0.004200   0.000006   0.000003   0.000002   0.000008
     9  H   -0.000039  -0.002186  -0.003894  -0.028378  -0.028701
    10  H   -0.005393  -0.000110  -0.000068   0.000433   0.000698
    11  H    0.005629   0.005188   0.000027   0.000113   0.000546
    12  H   -0.034656  -0.003202  -0.003620   0.000023  -0.000060
    13  H    0.590321   0.005518  -0.003300   0.005067  -0.000059
    14  H    0.005518   0.582880  -0.034025   0.005006  -0.004597
    15  H   -0.003300  -0.034025   0.576439  -0.003363   0.004710
    16  H    0.005067   0.005006  -0.003363   0.557099  -0.030566
    17  H   -0.000059  -0.004597   0.004710  -0.030566   0.550521
 Mulliken charges:
               1
     1  C   -0.478322
     2  C   -0.292197
     3  C   -0.280851
     4  C   -0.291821
     5  C   -0.482702
     6  H    0.158921
     7  H    0.155116
     8  H    0.155448
     9  H    0.159921
    10  H    0.151512
    11  H    0.146363
    12  H    0.145019
    13  H    0.141717
    14  H    0.147126
    15  H    0.150998
    16  H    0.154282
    17  H    0.159473
 Sum of Mulliken charges =  -0.00000
 Mulliken charges with hydrogens summed into heavy atoms:
               1
     1  C   -0.008838
     2  C    0.005677
     3  C    0.005885
     4  C    0.006303
     5  C   -0.009027
 Electronic spatial extent (au):  <R**2>=            646.5720
 Charge=             -0.0000 electrons
 Dipole moment (field-independent basis, Debye):
    X=              0.0313    Y=              0.0128    Z=              0.0261  Tot=              0.0427
 Quadrupole moment (field-independent basis, Debye-Ang):
   XX=            -35.3131   YY=            -34.9461   ZZ=            -34.6499
   XY=              0.2149   XZ=             -0.1317   YZ=              0.0537
 Traceless Quadrupole moment (field-independent basis, Debye-Ang):
   XX=             -0.3434   YY=              0.0236   ZZ=              0.3198
   XY=              0.2149   XZ=             -0.1317   YZ=              0.0537
 Octapole moment (field-independent basis, Debye-Ang**2):
  XXX=              2.3272  YYY=              0.2698  ZZZ=             -0.5415  XYY=             -0.9514
  XXY=              0.3235  XXZ=              0.8350  XZZ=             -0.0851  YZZ=             -0.0899
  YYZ=              0.5058  XYZ=             -0.4034
 Hexadecapole moment (field-independent basis, Debye-Ang**3):
 XXXX=           -668.5238 YYYY=           -142.7732 ZZZZ=            -80.8292 XXXY=              3.4204
 XXXZ=             -0.7722 YYYX=              1.3242 YYYZ=             -0.3180 ZZZX=              0.5521
 ZZZY=              0.7140 XXYY=           -134.4866 XXZZ=           -125.7504 YYZZ=            -39.1400
 XXYZ=             -1.0919 YYXZ=             -1.3579 ZZXY=              0.1581
 N-N= 1.877099958094D+02 E-N=-8.314551488408D+02  KE= 1.958247800046D+02
 1\1\GINC-ROBERTS-MACBOOK-PRO-2\FOpt\RM062X\6-31G(d)\C5H12\ROBERT.PATON
 \22-Sep-2018\0\\# opt=(maxcycles=160) M062X/6-31G(d) emp=GD3\\Generate
 d by prepare_file.py\\0,1\C,-0.1492793903,0.2095597676,-0.0095145436\C
 ,1.2368760553,0.8198133694,-0.2028805258\C,1.9386683061,1.0969142495,1
 .1266646501\C,3.3782459062,1.5957548879,0.9811038287\C,3.4912337467,2.
 9242943338,0.2345068607\H,-0.6459782331,0.0245057096,-0.9662872383\H,-
 0.0853124199,-0.743291585,0.5265807225\H,-0.7894696968,0.8768292418,0.
 5775241542\H,4.5212705422,3.2923821775,0.235660028\H,1.1464551854,1.74
 9706131,-0.7767731224\H,1.8594663638,0.1440775021,-0.8047536937\H,1.93
 56911859,0.1767255584,1.7259196974\H,1.3540096588,1.835167045,1.693959
 2938\H,3.9726134757,0.832533729,0.4619818867\H,3.8196850699,1.70406885
 84,1.9787613431\H,2.8612000114,3.6885316836,0.7035472201\H,3.176624232
 8,2.8284273406,-0.8090005613\\Version=EM64M-G16RevA.03\State=1-A\HF=-1
 97.6496426\RMSD=1.643e-09\RMSF=2.167e-06\Dipole=0.0165248,-0.0029038,0
 .0003131\Quadrupole=-0.1383431,0.0445477,0.0937954,-0.2384878,0.071025
 1,0.1443652\PG=C01 [X(C5H12)]\\@


 There was a great rattling of the words for the fewness of ideas.
                   -- Charles Baxter in Gryphon
 Job cpu time:       0 days  0 hours 17 minutes  9.1 seconds.
 Elapsed time:       0 days  0 hours  5 minutes 10.7 seconds.
 File lengths (MBytes):  RWF=     10 Int=      0 D2E=      0 Chk=      2 Scr=      1
 Normal termination of Gaussian 16 at Sat Sep 22 00:15:27 2018.
