 Entering Gaussian System, Link 0=g16
 Initial command:
 /Applications/g16/l1.exe "/var/folders/hc/gtglrcdn25lc_0x4jfkqf1nh0000gn/T/Gau-28847.inp" -scrdir="/var/folders/hc/gtglrcdn25lc_0x4jfkqf1nh0000gn/T/"
 Entering Link 1 = /Applications/g16/l1.exe PID=     28848.
  
 Copyright (c) 1988,1990,1992,1993,1995,1998,2003,2009,2016,
            Gaussian, Inc.  All Rights Reserved.
  
 This is part of the Gaussian(R) 16 program.  It is based on
 the Gaussian(R) 09 system (copyright 2009, Gaussian, Inc.),
 the Gaussian(R) 03 system (copyright 2003, Gaussian, Inc.),
 the Gaussian(R) 98 system (copyright 1998, Gaussian, Inc.),
 the Gaussian(R) 94 system (copyright 1995, Gaussian, Inc.),
 the Gaussian 92(TM) system (copyright 1992, Gaussian, Inc.),
 the Gaussian 90(TM) system (copyright 1990, Gaussian, Inc.),
 the Gaussian 88(TM) system (copyright 1988, Gaussian, Inc.),
 the Gaussian 86(TM) system (copyright 1986, Carnegie Mellon
 University), and the Gaussian 82(TM) system (copyright 1983,
 Carnegie Mellon University). Gaussian is a federally registered
 trademark of Gaussian, Inc.
  
 This software contains proprietary and confidential information,
 including trade secrets, belonging to Gaussian, Inc.
  
 This software is provided under written license and may be
 used, copied, transmitted, or stored only in accord with that
 written license.
  
 The following legend is applicable only to US Government
 contracts under FAR:
  
                    RESTRICTED RIGHTS LEGEND
  
 Use, reproduction and disclosure by the US Government is
 subject to restrictions as set forth in subparagraphs (a)
 and (c) of the Commercial Computer Software - Restricted
 Rights clause in FAR 52.227-19.
  
 Gaussian, Inc.
 340 Quinnipiac St., Bldg. 40, Wallingford CT 06492
  
  
 ---------------------------------------------------------------
 Warning -- This program may not be used in any manner that
 competes with the business of Gaussian, Inc. or will provide
 assistance to any competitor of Gaussian, Inc.  The licensee
 of this program is prohibited from giving any competitor of
 Gaussian, Inc. access to this program.  By using this program,
 the user acknowledges that Gaussian, Inc. is engaged in the
 business of creating and licensing software in the field of
 computational chemistry and represents and warrants to the
 licensee that it is not a competitor of Gaussian, Inc. and that
 it will not use this program in any manner prohibited above.
 ---------------------------------------------------------------
  

 Cite this work as:
 Gaussian 16, Revision A.03,
 M. J. Frisch, G. W. Trucks, H. B. Schlegel, G. E. Scuseria, 
 M. A. Robb, J. R. Cheeseman, G. Scalmani, V. Barone, 
 G. A. Petersson, H. Nakatsuji, X. Li, M. Caricato, A. V. Marenich, 
 J. Bloino, B. G. Janesko, R. Gomperts, B. Mennucci, H. P. Hratchian, 
 J. V. Ortiz, A. F. Izmaylov, J. L. Sonnenberg, D. Williams-Young, 
 F. Ding, F. Lipparini, F. Egidi, J. Goings, B. Peng, A. Petrone, 
 T. Henderson, D. Ranasinghe, V. G. Zakrzewski, J. Gao, N. Rega, 
 G. Zheng, W. Liang, M. Hada, M. Ehara, K. Toyota, R. Fukuda, 
 J. Hasegawa, M. Ishida, T. Nakajima, Y. Honda, O. Kitao, H. Nakai, 
 T. Vreven, K. Throssell, J. A. Montgomery, Jr., J. E. Peralta, 
 F. Ogliaro, M. J. Bearpark, J. J. Heyd, E. N. Brothers, K. N. Kudin, 
 V. N. Staroverov, T. A. Keith, R. Kobayashi, J. Normand, 
 K. Raghavachari, A. P. Rendell, J. C. Burant, S. S. Iyengar, 
 J. Tomasi, M. Cossi, J. M. Millam, M. Klene, C. Adamo, R. Cammi, 
 J. W. Ochterski, R. L. Martin, K. Morokuma, O. Farkas, 
 J. B. Foresman, and D. J. Fox, Gaussian, Inc., Wallingford CT, 2016.
 
 ******************************************
 Gaussian 16:  EM64M-G16RevA.03 25-Dec-2016
                22-Sep-2018 
 ******************************************
 %mem=1GB
 %nprocshared=4
 Will use up to    4 processors via shared memory.
 %chk=pentane_19.chk
 --------------------------------------------
 # opt=(maxcycles=160) M062X/6-31G(d) emp=GD3
 --------------------------------------------
 1/6=160,18=20,19=15,26=3,38=1/1,3;
 2/9=110,12=2,17=6,18=5,40=1/2;
 3/5=1,6=6,7=1,11=2,25=1,30=1,71=1,74=-55,124=31/1,2,3;
 4//1;
 5/5=2,38=5/2;
 6/7=2,8=2,9=2,10=2,28=1/1;
 7//1,2,3,16;
 1/6=160,18=20,19=15,26=3/3(2);
 2/9=110/2;
 99//99;
 2/9=110/2;
 3/5=1,6=6,7=1,11=2,25=1,30=1,71=1,74=-55,124=31/1,2,3;
 4/5=5,16=3,69=1/1;
 5/5=2,38=5/2;
 7//1,2,3,16;
 1/6=160,18=20,19=15,26=3/3(-5);
 2/9=110/2;
 6/7=2,8=2,9=2,10=2,19=2,28=1/1;
 99/9=1/99;
 ----------------------------
 Generated by prepare_file.py
 ----------------------------
 Symbolic Z-matrix:
 Charge =  0 Multiplicity = 1
 C                     0.        0.        0. 
 C                     1.171     0.975    -0.22 
 C                     1.752     1.396     1.143 
 C                     0.765     2.343     1.85 
 C                     1.55      3.414     2.63 
 H                    -0.785     0.244    -0.653 
 H                     0.322    -0.981    -0.19 
 H                    -0.335     0.073     0.993 
 H                     0.876     4.059     3.113 
 H                     0.828     1.825    -0.731 
 H                     1.917     0.503    -0.787 
 H                     2.667     1.891     0.996 
 H                     1.906     0.544     1.737 
 H                     0.167     1.794     2.515 
 H                     0.154     2.809     1.135 
 H                     2.145     3.967     1.964 
 H                     2.162     2.949     3.345 
 

 GradGradGradGradGradGradGradGradGradGradGradGradGradGradGradGradGradGrad
 Berny optimization.
 Initialization pass.
                           ----------------------------
                           !    Initial Parameters    !
                           ! (Angstroms and Degrees)  !
 --------------------------                            --------------------------
 ! Name  Definition              Value          Derivative Info.                !
 --------------------------------------------------------------------------------
 ! R1    R(1,2)                  1.5396         estimate D2E/DX2                !
 ! R2    R(1,6)                  1.0498         estimate D2E/DX2                !
 ! R3    R(1,7)                  1.0498         estimate D2E/DX2                !
 ! R4    R(1,8)                  1.0505         estimate D2E/DX2                !
 ! R5    R(2,3)                  1.5403         estimate D2E/DX2                !
 ! R6    R(2,10)                 1.0494         estimate D2E/DX2                !
 ! R7    R(2,11)                 1.0492         estimate D2E/DX2                !
 ! R8    R(3,4)                  1.5397         estimate D2E/DX2                !
 ! R9    R(3,12)                 1.0506         estimate D2E/DX2                !
 ! R10   R(3,13)                 1.05           estimate D2E/DX2                !
 ! R11   R(4,5)                  1.54           estimate D2E/DX2                !
 ! R12   R(4,14)                 1.0494         estimate D2E/DX2                !
 ! R13   R(4,15)                 1.0496         estimate D2E/DX2                !
 ! R14   R(5,9)                  1.0505         estimate D2E/DX2                !
 ! R15   R(5,16)                 1.0504         estimate D2E/DX2                !
 ! R16   R(5,17)                 1.0498         estimate D2E/DX2                !
 ! A1    A(2,1,6)              109.4301         estimate D2E/DX2                !
 ! A2    A(2,1,7)              109.428          estimate D2E/DX2                !
 ! A3    A(2,1,8)              109.4882         estimate D2E/DX2                !
 ! A4    A(6,1,7)              109.5086         estimate D2E/DX2                !
 ! A5    A(6,1,8)              109.472          estimate D2E/DX2                !
 ! A6    A(7,1,8)              109.5003         estimate D2E/DX2                !
 ! A7    A(1,2,3)              109.4839         estimate D2E/DX2                !
 ! A8    A(1,2,10)             109.5077         estimate D2E/DX2                !
 ! A9    A(1,2,11)             109.459          estimate D2E/DX2                !
 ! A10   A(3,2,10)             109.438          estimate D2E/DX2                !
 ! A11   A(3,2,11)             109.4492         estimate D2E/DX2                !
 ! A12   A(10,2,11)            109.4895         estimate D2E/DX2                !
 ! A13   A(2,3,4)              109.428          estimate D2E/DX2                !
 ! A14   A(2,3,12)             109.479          estimate D2E/DX2                !
 ! A15   A(2,3,13)             109.5202         estimate D2E/DX2                !
 ! A16   A(4,3,12)             109.4346         estimate D2E/DX2                !
 ! A17   A(4,3,13)             109.4706         estimate D2E/DX2                !
 ! A18   A(12,3,13)            109.4949         estimate D2E/DX2                !
 ! A19   A(3,4,5)              109.4837         estimate D2E/DX2                !
 ! A20   A(3,4,14)             109.5418         estimate D2E/DX2                !
 ! A21   A(3,4,15)             109.4764         estimate D2E/DX2                !
 ! A22   A(5,4,14)             109.4717         estimate D2E/DX2                !
 ! A23   A(5,4,15)             109.45           estimate D2E/DX2                !
 ! A24   A(14,4,15)            109.4037         estimate D2E/DX2                !
 ! A25   A(4,5,9)              109.4401         estimate D2E/DX2                !
 ! A26   A(4,5,16)             109.495          estimate D2E/DX2                !
 ! A27   A(4,5,17)             109.5171         estimate D2E/DX2                !
 ! A28   A(9,5,16)             109.3717         estimate D2E/DX2                !
 ! A29   A(9,5,17)             109.4421         estimate D2E/DX2                !
 ! A30   A(16,5,17)            109.5611         estimate D2E/DX2                !
 ! D1    D(6,1,2,3)            137.7376         estimate D2E/DX2                !
 ! D2    D(6,1,2,10)            17.7482         estimate D2E/DX2                !
 ! D3    D(6,1,2,11)          -102.2891         estimate D2E/DX2                !
 ! D4    D(7,1,2,3)           -102.2681         estimate D2E/DX2                !
 ! D5    D(7,1,2,10)           137.7425         estimate D2E/DX2                !
 ! D6    D(7,1,2,11)            17.7052         estimate D2E/DX2                !
 ! D7    D(8,1,2,3)             17.7515         estimate D2E/DX2                !
 ! D8    D(8,1,2,10)          -102.2379         estimate D2E/DX2                !
 ! D9    D(8,1,2,11)           137.7248         estimate D2E/DX2                !
 ! D10   D(1,2,3,4)            -72.008          estimate D2E/DX2                !
 ! D11   D(1,2,3,12)           168.0585         estimate D2E/DX2                !
 ! D12   D(1,2,3,13)            47.9948         estimate D2E/DX2                !
 ! D13   D(10,2,3,4)            48.0241         estimate D2E/DX2                !
 ! D14   D(10,2,3,12)          -71.9094         estimate D2E/DX2                !
 ! D15   D(10,2,3,13)          168.0268         estimate D2E/DX2                !
 ! D16   D(11,2,3,4)           168.0127         estimate D2E/DX2                !
 ! D17   D(11,2,3,12)           48.0792         estimate D2E/DX2                !
 ! D18   D(11,2,3,13)          -71.9846         estimate D2E/DX2                !
 ! D19   D(2,3,4,5)           -144.0357         estimate D2E/DX2                !
 ! D20   D(2,3,4,14)            95.9128         estimate D2E/DX2                !
 ! D21   D(2,3,4,15)           -24.0508         estimate D2E/DX2                !
 ! D22   D(12,3,4,5)           -24.075          estimate D2E/DX2                !
 ! D23   D(12,3,4,14)         -144.1265         estimate D2E/DX2                !
 ! D24   D(12,3,4,15)           95.9098         estimate D2E/DX2                !
 ! D25   D(13,3,4,5)            95.9311         estimate D2E/DX2                !
 ! D26   D(13,3,4,14)          -24.1204         estimate D2E/DX2                !
 ! D27   D(13,3,4,15)         -144.084          estimate D2E/DX2                !
 ! D28   D(3,4,5,9)           -179.9327         estimate D2E/DX2                !
 ! D29   D(3,4,5,16)            60.1936         estimate D2E/DX2                !
 ! D30   D(3,4,5,17)           -59.9593         estimate D2E/DX2                !
 ! D31   D(14,4,5,9)           -59.8383         estimate D2E/DX2                !
 ! D32   D(14,4,5,16)         -179.712          estimate D2E/DX2                !
 ! D33   D(14,4,5,17)           60.135          estimate D2E/DX2                !
 ! D34   D(15,4,5,9)            60.0664         estimate D2E/DX2                !
 ! D35   D(15,4,5,16)          -59.8073         estimate D2E/DX2                !
 ! D36   D(15,4,5,17)         -179.9603         estimate D2E/DX2                !
 --------------------------------------------------------------------------------
 Trust Radius=3.00D-01 FncErr=1.00D-07 GrdErr=1.00D-06 EigMax=2.50D+02 EigMin=1.00D-04
 Number of steps in this run=    102 maximum allowed number of steps=    102.
 GradGradGradGradGradGradGradGradGradGradGradGradGradGradGradGradGradGrad

                          Input orientation:                          
 ---------------------------------------------------------------------
 Center     Atomic      Atomic             Coordinates (Angstroms)
 Number     Number       Type             X           Y           Z
 ---------------------------------------------------------------------
      1          6           0        0.000000    0.000000    0.000000
      2          6           0        1.171000    0.975000   -0.220000
      3          6           0        1.752000    1.396000    1.143000
      4          6           0        0.765000    2.343000    1.850000
      5          6           0        1.550000    3.414000    2.630000
      6          1           0       -0.785000    0.244000   -0.653000
      7          1           0        0.322000   -0.981000   -0.190000
      8          1           0       -0.335000    0.073000    0.993000
      9          1           0        0.876000    4.059000    3.113000
     10          1           0        0.828000    1.825000   -0.731000
     11          1           0        1.917000    0.503000   -0.787000
     12          1           0        2.667000    1.891000    0.996000
     13          1           0        1.906000    0.544000    1.737000
     14          1           0        0.167000    1.794000    2.515000
     15          1           0        0.154000    2.809000    1.135000
     16          1           0        2.145000    3.967000    1.964000
     17          1           0        2.162000    2.949000    3.345000
 ---------------------------------------------------------------------
                    Distance matrix (angstroms):
                    1          2          3          4          5
     1  C    0.000000
     2  C    1.539567   0.000000
     3  C    2.514909   1.540315   0.000000
     4  C    3.081781   2.514192   1.539749   0.000000
     5  C    4.579825   3.770260   2.514816   1.540021   0.000000
     6  H    1.049843   2.132554   3.314979   3.615703   5.126326
     7  H    1.049831   2.132519   3.077648   3.925153   5.364365
     8  H    1.050525   2.133778   2.475560   2.664085   4.170764
     9  H    5.189762   4.550491   3.426346   2.133576   1.050519
    10  H    2.133207   1.049414   2.133001   2.633221   3.787153
    11  H    2.132432   1.049185   2.132973   3.415622   4.503832
    12  H    3.417716   2.134415   1.050647   2.133360   2.497433
    13  H    2.635515   2.134440   1.049979   2.133319   3.026728
    14  H    3.093792   3.026384   2.133779   1.049395   2.133147
    15  H    3.033549   2.496772   2.133128   1.049620   2.133041
    16  H    4.918883   3.830221   2.727367   2.134191   1.050424
    17  H    4.955792   4.193803   2.725567   2.133980   1.049759
                    6          7          8          9         10
     6  H    0.000000
     7  H    1.714772   0.000000
     8  H    1.714951   1.715242   0.000000
     9  H    5.612121   6.051308   4.674304   0.000000
    10  H    2.259959   2.902129   2.719237   4.446279   0.000000
    11  H    2.717690   2.258913   2.902551   5.379481   1.713692
    12  H    4.165107   3.892815   3.509578   3.519886   2.523649
    13  H    3.611590   2.923698   2.407791   3.912736   2.982293
    14  H    3.653085   3.878360   2.351665   2.447552   3.312763
    15  H    3.264642   4.018451   2.782981   2.448728   2.214608
    16  H    5.412423   5.696117   4.717677   1.714359   3.685875
    17  H    5.655602   5.597028   4.476415   1.714561   4.433589
                   11         12         13         14         15
    11  H    0.000000
    12  H    2.380784   0.000000
    13  H    2.524357   1.715404   0.000000
    14  H    3.953781   2.926905   2.278575   0.000000
    15  H    3.481363   2.679032   2.926112   1.713124   0.000000
    16  H    4.429366   2.349316   3.438834   2.989651   2.447915
    17  H    4.807948   2.625298   2.904346   2.450092   2.989275
                   16         17
    16  H    0.000000
    17  H    1.715743   0.000000
 Stoichiometry    C5H12
 Framework group  C1[X(C5H12)]
 Deg. of freedom    45
 Full point group                 C1      NOp   1
 Largest Abelian subgroup         C1      NOp   1
 Largest concise Abelian subgroup C1      NOp   1
                         Standard orientation:                         
 ---------------------------------------------------------------------
 Center     Atomic      Atomic             Coordinates (Angstroms)
 Number     Number       Type             X           Y           Z
 ---------------------------------------------------------------------
      1          6           0       -2.138104   -0.578852   -0.107285
      2          6           0       -1.286654    0.609570    0.375364
      3          6           0        0.042471    0.638802   -0.402546
      4          6           0        0.938038   -0.521185    0.069912
      5          6           0        2.409656   -0.067307    0.068775
      6          1           0       -2.578992   -1.051405    0.720048
      7          1           0       -2.888788   -0.230954   -0.753495
      8          1           0       -1.526409   -1.264089   -0.617072
      9          1           0        3.020135   -0.859552    0.390103
     10          1           0       -1.088966    0.505489    1.400721
     11          1           0       -1.808799    1.504187    0.208587
     12          1           0        0.531386    1.551963   -0.226596
     13          1           0       -0.149855    0.536529   -1.429682
     14          1           0        0.823728   -1.339081   -0.577551
     15          1           0        0.660350   -0.804287    1.041737
     16          1           0        2.525460    0.748285    0.720534
     17          1           0        2.688312    0.216743   -0.902647
 ---------------------------------------------------------------------
 Rotational constants (GHZ):          12.3389673           2.3648609           2.1991503
 Standard basis: 6-31G(d) (6D, 7F)
 There are    99 symmetry adapted cartesian basis functions of A   symmetry.
 There are    99 symmetry adapted basis functions of A   symmetry.
    99 basis functions,   188 primitive gaussians,    99 cartesian basis functions
    21 alpha electrons       21 beta electrons
       nuclear repulsion energy       190.8981409951 Hartrees.
 NAtoms=   17 NActive=   17 NUniq=   17 SFac= 1.00D+00 NAtFMM=   60 NAOKFM=F Big=F
 Integral buffers will be    131072 words long.
 Raffenetti 2 integral format.
 Two-electron integral symmetry is turned on.
 Nuclear repulsion after empirical dispersion term =      190.8978586504 Hartrees.
 One-electron integrals computed using PRISM.
 NBasis=    99 RedAO= T EigKep=  4.14D-03  NBF=    99
 NBsUse=    99 1.00D-06 EigRej= -1.00D+00 NBFU=    99
 ExpMin= 1.61D-01 ExpMax= 3.05D+03 ExpMxC= 4.57D+02 IAcc=3 IRadAn=         5 AccDes= 0.00D+00
 Harris functional with IExCor= 1009 and IRadAn=       5 diagonalized for initial guess.
 HarFok:  IExCor= 1009 AccDes= 0.00D+00 IRadAn=         5 IDoV= 1 UseB2=F ITyADJ=14
 ICtDFT=  3500011 ScaDFX=  1.000000  1.000000  1.000000  1.000000
 FoFCou: FMM=F IPFlag=           0 FMFlag=      100000 FMFlg1=           0
         NFxFlg=           0 DoJE=T BraDBF=F KetDBF=T FulRan=T
         wScrn=  0.000000 ICntrl=       500 IOpCl=  0 I1Cent=   200000004 NGrid=           0
         NMat0=    1 NMatS0=      1 NMatT0=    0 NMatD0=    1 NMtDS0=    0 NMtDT0=    0
 Petite list used in FoFCou.
 Keep R1 ints in memory in canonical form, NReq=15944043.
 Requested convergence on RMS density matrix=1.00D-08 within 128 cycles.
 Requested convergence on MAX density matrix=1.00D-06.
 Requested convergence on             energy=1.00D-06.
 No special actions if energy rises.
 Integral accuracy reduced to 1.0D-05 until final iterations.
 Initial convergence to 1.0D-05 achieved.  Increase integral accuracy.
 SCF Done:  E(RM062X) =  -197.622886285     A.U. after   12 cycles
            NFock= 12  Conv=0.31D-08     -V/T= 2.0052

 **********************************************************************

            Population analysis using the SCF density.

 **********************************************************************

 Orbital symmetries:
       Occupied  (A) (A) (A) (A) (A) (A) (A) (A) (A) (A) (A) (A)
                 (A) (A) (A) (A) (A) (A) (A) (A) (A)
       Virtual   (A) (A) (A) (A) (A) (A) (A) (A) (A) (A) (A) (A)
                 (A) (A) (A) (A) (A) (A) (A) (A) (A) (A) (A) (A)
                 (A) (A) (A) (A) (A) (A) (A) (A) (A) (A) (A) (A)
                 (A) (A) (A) (A) (A) (A) (A) (A) (A) (A) (A) (A)
                 (A) (A) (A) (A) (A) (A) (A) (A) (A) (A) (A) (A)
                 (A) (A) (A) (A) (A) (A) (A) (A) (A) (A) (A) (A)
                 (A) (A) (A) (A) (A) (A)
 The electronic state is 1-A.
 Alpha  occ. eigenvalues --  -10.52110 -10.51974 -10.51852 -10.51258 -10.51053
 Alpha  occ. eigenvalues --   -0.90336  -0.84434  -0.76612  -0.69910  -0.65556
 Alpha  occ. eigenvalues --   -0.54429  -0.51805  -0.50867  -0.47595  -0.45590
 Alpha  occ. eigenvalues --   -0.43116  -0.41353  -0.40777  -0.38452  -0.37493
 Alpha  occ. eigenvalues --   -0.35558
 Alpha virt. eigenvalues --    0.14041   0.16676   0.17283   0.19087   0.20178
 Alpha virt. eigenvalues --    0.21671   0.22724   0.23783   0.24500   0.25401
 Alpha virt. eigenvalues --    0.27747   0.28848   0.30098   0.31685   0.32096
 Alpha virt. eigenvalues --    0.34887   0.54067   0.56344   0.58127   0.59194
 Alpha virt. eigenvalues --    0.60568   0.64882   0.66722   0.68272   0.72499
 Alpha virt. eigenvalues --    0.76200   0.76713   0.81335   0.83355   0.90266
 Alpha virt. eigenvalues --    0.92080   0.97174   0.98446   1.00044   1.01288
 Alpha virt. eigenvalues --    1.01464   1.02879   1.04202   1.05900   1.07464
 Alpha virt. eigenvalues --    1.08158   1.08995   1.10567   1.13159   1.27693
 Alpha virt. eigenvalues --    1.42412   1.45741   1.48924   1.61238   1.67570
 Alpha virt. eigenvalues --    1.72687   1.80794   1.89086   1.89660   1.96645
 Alpha virt. eigenvalues --    1.99243   2.04674   2.09146   2.12006   2.15248
 Alpha virt. eigenvalues --    2.24625   2.25798   2.33690   2.40084   2.41704
 Alpha virt. eigenvalues --    2.44650   2.46767   2.52658   2.55391   2.60177
 Alpha virt. eigenvalues --    2.66671   2.71573   2.79987   4.18500   4.26677
 Alpha virt. eigenvalues --    4.36635   4.49602   4.59461
          Condensed to atoms (all electrons):
               1          2          3          4          5          6
     1  C    5.107651   0.349944  -0.046861  -0.007496   0.000344   0.389665
     2  C    0.349944   5.023124   0.380241  -0.046306   0.003365  -0.032553
     3  C   -0.046861   0.380241   5.052055   0.364451  -0.048590   0.004195
     4  C   -0.007496  -0.046306   0.364451   5.029430   0.371756   0.000032
     5  C    0.000344   0.003365  -0.048590   0.371756   5.071245   0.000001
     6  H    0.389665  -0.032553   0.004195   0.000032   0.000001   0.537217
     7  H    0.392303  -0.032317   0.000515  -0.000062  -0.000009  -0.027211
     8  H    0.396358  -0.047120  -0.009797   0.003756  -0.000093  -0.029052
     9  H    0.000007  -0.000194   0.005490  -0.034352   0.387099  -0.000001
    10  H   -0.042480   0.399609  -0.041623  -0.010392   0.000219  -0.008362
    11  H   -0.038967   0.393046  -0.037708   0.005638  -0.000187   0.002104
    12  H    0.005565  -0.037689   0.396657  -0.049802  -0.005998  -0.000204
    13  H   -0.006735  -0.038618   0.386994  -0.036467   0.000610   0.000141
    14  H    0.000117   0.000642  -0.035944   0.390314  -0.035571  -0.000120
    15  H   -0.000837  -0.006350  -0.051655   0.399971  -0.038077  -0.000057
    16  H   -0.000007   0.000149  -0.006839  -0.036390   0.392855   0.000000
    17  H   -0.000012   0.000122  -0.004076  -0.035612   0.391509   0.000000
               7          8          9         10         11         12
     1  C    0.392303   0.396358   0.000007  -0.042480  -0.038967   0.005565
     2  C   -0.032317  -0.047120  -0.000194   0.399609   0.393046  -0.037689
     3  C    0.000515  -0.009797   0.005490  -0.041623  -0.037708   0.396657
     4  C   -0.000062   0.003756  -0.034352  -0.010392   0.005638  -0.049802
     5  C   -0.000009  -0.000093   0.387099   0.000219  -0.000187  -0.005998
     6  H   -0.027211  -0.029052  -0.000001  -0.008362   0.002104  -0.000204
     7  H    0.531189  -0.028062  -0.000000   0.004406  -0.009341  -0.000133
     8  H   -0.028062   0.541246   0.000014   0.001889   0.004601   0.000479
     9  H   -0.000000   0.000014   0.545112  -0.000027   0.000004   0.000417
    10  H    0.004406   0.001889  -0.000027   0.562923  -0.033353  -0.001160
    11  H   -0.009341   0.004601   0.000004  -0.033353   0.563139  -0.004259
    12  H   -0.000133   0.000479   0.000417  -0.001160  -0.004259   0.567127
    13  H    0.001503   0.000928  -0.000220   0.005502  -0.001330  -0.033324
    14  H    0.000088   0.001569  -0.002803   0.000205  -0.000225   0.005012
    15  H    0.000028   0.000589  -0.003077   0.006545   0.000450   0.000692
    16  H    0.000001   0.000000  -0.029410   0.000124  -0.000037   0.004802
    17  H    0.000000   0.000003  -0.028987   0.000011   0.000009  -0.000143
              13         14         15         16         17
     1  C   -0.006735   0.000117  -0.000837  -0.000007  -0.000012
     2  C   -0.038618   0.000642  -0.006350   0.000149   0.000122
     3  C    0.386994  -0.035944  -0.051655  -0.006839  -0.004076
     4  C   -0.036467   0.390314   0.399971  -0.036390  -0.035612
     5  C    0.000610  -0.035571  -0.038077   0.392855   0.391509
     6  H    0.000141  -0.000120  -0.000057   0.000000   0.000000
     7  H    0.001503   0.000088   0.000028   0.000001   0.000000
     8  H    0.000928   0.001569   0.000589   0.000000   0.000003
     9  H   -0.000220  -0.002803  -0.003077  -0.029410  -0.028987
    10  H    0.005502   0.000205   0.006545   0.000124   0.000011
    11  H   -0.001330  -0.000225   0.000450  -0.000037   0.000009
    12  H   -0.033324   0.005012   0.000692   0.004802  -0.000143
    13  H    0.566583  -0.008570   0.005281  -0.000040   0.001591
    14  H   -0.008570   0.560366  -0.034848   0.005162  -0.004656
    15  H    0.005281  -0.034848   0.565287  -0.004315   0.005259
    16  H   -0.000040   0.005162  -0.004315   0.542914  -0.030543
    17  H    0.001591  -0.004656   0.005259  -0.030543   0.542819
 Mulliken charges:
               1
     1  C   -0.498559
     2  C   -0.309096
     3  C   -0.307503
     4  C   -0.308470
     5  C   -0.490477
     6  H    0.164204
     7  H    0.167103
     8  H    0.162693
     9  H    0.160928
    10  H    0.155965
    11  H    0.156417
    12  H    0.151963
    13  H    0.156172
    14  H    0.159261
    15  H    0.155116
    16  H    0.161574
    17  H    0.162707
 Sum of Mulliken charges =  -0.00000
 Mulliken charges with hydrogens summed into heavy atoms:
               1
     1  C   -0.004559
     2  C    0.003287
     3  C    0.000633
     4  C    0.005908
     5  C   -0.005269
 Electronic spatial extent (au):  <R**2>=            626.9314
 Charge=              0.0000 electrons
 Dipole moment (field-independent basis, Debye):
    X=             -0.0256    Y=              0.0151    Z=             -0.0085  Tot=              0.0309
 Quadrupole moment (field-independent basis, Debye-Ang):
   XX=            -35.2743   YY=            -34.6433   ZZ=            -33.9230
   XY=             -0.3841   XZ=              0.0294   YZ=             -0.0138
 Traceless Quadrupole moment (field-independent basis, Debye-Ang):
   XX=             -0.6608   YY=             -0.0298   ZZ=              0.6905
   XY=             -0.3841   XZ=              0.0294   YZ=             -0.0138
 Octapole moment (field-independent basis, Debye-Ang**2):
  XXX=             -2.3397  YYY=              0.5619  ZZZ=              0.1581  XYY=              0.8741
  XXY=              0.7954  XXZ=             -0.2087  XZZ=             -0.0949  YZZ=             -0.5317
  YYZ=              0.1004  XYZ=              0.9131
 Hexadecapole moment (field-independent basis, Debye-Ang**3):
 XXXX=           -654.3873 YYYY=           -130.7929 ZZZZ=            -80.2755 XXXY=             -6.4334
 XXXZ=              1.3238 YYYX=             -2.0440 YYYZ=              0.7767 ZZZX=             -1.3996
 ZZZY=             -0.4697 XXYY=           -128.3510 XXZZ=           -118.5242 YYZZ=            -35.7366
 XXYZ=             -2.9055 YYXZ=              0.5579 ZZXY=              0.9158
 N-N= 1.908978586504D+02 E-N=-8.384337960073D+02  KE= 1.965966219140D+02
 Calling FoFJK, ICntrl=      2127 FMM=F ISym2X=0 I1Cent= 0 IOpClX= 0 NMat=1 NMatS=1 NMatT=0.
 ***** Axes restored to original set *****
 -------------------------------------------------------------------
 Center     Atomic                   Forces (Hartrees/Bohr)
 Number     Number              X              Y              Z
 -------------------------------------------------------------------
      1        6           0.026743269    0.024124136   -0.010427106
      2        6          -0.008241886   -0.019501464    0.043540015
      3        6          -0.041598607    0.015877884   -0.026094535
      4        6           0.052094209    0.005046475    0.007970900
      5        6          -0.028003261   -0.026086226   -0.017615589
      6        1          -0.027142109    0.002412508   -0.018734712
      7        1           0.006148991   -0.031867656   -0.003803497
      8        1          -0.014249004   -0.000078180    0.029081964
      9        1          -0.017670416    0.022384552    0.017141209
     10        1          -0.006697841    0.028230974   -0.017327639
     11        1           0.023343425   -0.012762581   -0.021804729
     12        1           0.030331916    0.014530613   -0.003148857
     13        1           0.009511098   -0.027553164    0.018407462
     14        1          -0.022800894   -0.015219428    0.020184256
     15        1          -0.021818037    0.014864876   -0.021572327
     16        1           0.019334507    0.018121362   -0.018986190
     17        1           0.020714639   -0.012524681    0.023189376
 -------------------------------------------------------------------
 Cartesian Forces:  Max     0.052094209 RMS     0.021904856

 GradGradGradGradGradGradGradGradGradGradGradGradGradGradGradGradGradGrad
 Berny optimization.
 FormGI is forming the generalized inverse of G from B-inverse, IUseBI=4.
 Internal  Forces:  Max     0.034166229 RMS     0.013146126
 Search for a local minimum.
 Step number   1 out of a maximum of  102
 All quantities printed in internal units (Hartrees-Bohrs-Radians)
 Mixed Optimization -- RFO/linear search
 Second derivative matrix not updated -- first step.
 ITU=  0
     Eigenvalues ---    0.00233   0.00237   0.00240   0.00243   0.03837
     Eigenvalues ---    0.03840   0.03845   0.04895   0.04897   0.04898
     Eigenvalues ---    0.05709   0.05725   0.05725   0.05730   0.07647
     Eigenvalues ---    0.07657   0.07660   0.11695   0.11702   0.11705
     Eigenvalues ---    0.16000   0.16000   0.16000   0.16000   0.16000
     Eigenvalues ---    0.16000   0.21945   0.21948   0.21949   0.28491
     Eigenvalues ---    0.28517   0.28541   0.28557   0.39787   0.39804
     Eigenvalues ---    0.39805   0.39818   0.39880   0.39898   0.39900
     Eigenvalues ---    0.39910   0.39929   0.39958   0.39961   0.39990
 RFO step:  Lambda=-3.53788857D-02 EMin= 2.32654356D-03
 Linear search not attempted -- first point.
 Iteration  1 RMS(Cart)=  0.06290631 RMS(Int)=  0.00103873
 Iteration  2 RMS(Cart)=  0.00135748 RMS(Int)=  0.00018165
 Iteration  3 RMS(Cart)=  0.00000202 RMS(Int)=  0.00018164
 Iteration  4 RMS(Cart)=  0.00000000 RMS(Int)=  0.00018164
 Variable       Old X    -DE/DX   Delta X   Delta X   Delta X     New X
                                 (Linear)    (Quad)   (Total)
    R1        2.90936   0.00934   0.00000   0.02909   0.02909   2.93845
    R2        1.98392   0.03251   0.00000   0.07484   0.07484   2.05876
    R3        1.98389   0.03235   0.00000   0.07448   0.07448   2.05837
    R4        1.98520   0.03203   0.00000   0.07390   0.07390   2.05910
    R5        2.91077   0.00215   0.00000   0.00672   0.00672   2.91749
    R6        1.98311   0.03349   0.00000   0.07700   0.07700   2.06011
    R7        1.98267   0.03412   0.00000   0.07839   0.07839   2.06107
    R8        2.90970   0.00760   0.00000   0.02369   0.02369   2.93339
    R9        1.98543   0.03370   0.00000   0.07779   0.07779   2.06322
   R10        1.98417   0.03417   0.00000   0.07869   0.07869   2.06287
   R11        2.91022   0.00034   0.00000   0.00106   0.00106   2.91128
   R12        1.98307   0.03375   0.00000   0.07758   0.07758   2.06065
   R13        1.98349   0.03400   0.00000   0.07821   0.07821   2.06170
   R14        1.98519   0.03296   0.00000   0.07605   0.07605   2.06124
   R15        1.98501   0.03253   0.00000   0.07503   0.07503   2.06004
   R16        1.98376   0.03342   0.00000   0.07692   0.07692   2.06067
    A1        1.90992   0.00660   0.00000   0.03442   0.03401   1.94392
    A2        1.90988   0.00404   0.00000   0.02041   0.02011   1.92999
    A3        1.91093   0.00430   0.00000   0.02162   0.02131   1.93224
    A4        1.91129  -0.00515   0.00000  -0.02563  -0.02601   1.88527
    A5        1.91065  -0.00533   0.00000  -0.02673  -0.02713   1.88352
    A6        1.91114  -0.00445   0.00000  -0.02403  -0.02421   1.88693
    A7        1.91085   0.00955   0.00000   0.04442   0.04419   1.95504
    A8        1.91127  -0.00104   0.00000   0.00349   0.00359   1.91486
    A9        1.91042  -0.00221   0.00000  -0.00212  -0.00232   1.90810
   A10        1.91005  -0.00378   0.00000  -0.01750  -0.01786   1.89219
   A11        1.91025  -0.00204   0.00000  -0.00404  -0.00443   1.90582
   A12        1.91095  -0.00048   0.00000  -0.02423  -0.02443   1.88653
   A13        1.90988   0.01230   0.00000   0.05540   0.05514   1.96502
   A14        1.91077  -0.00222   0.00000  -0.00076  -0.00121   1.90956
   A15        1.91149  -0.00455   0.00000  -0.02065  -0.02084   1.89065
   A16        1.90999  -0.00335   0.00000  -0.00682  -0.00731   1.90269
   A17        1.91062  -0.00237   0.00000  -0.00498  -0.00483   1.90579
   A18        1.91105   0.00019   0.00000  -0.02214  -0.02238   1.88866
   A19        1.91085   0.00864   0.00000   0.04010   0.03992   1.95077
   A20        1.91187  -0.00088   0.00000   0.00382   0.00393   1.91579
   A21        1.91072  -0.00193   0.00000  -0.00143  -0.00156   1.90916
   A22        1.91064  -0.00350   0.00000  -0.01643  -0.01674   1.89390
   A23        1.91026  -0.00196   0.00000  -0.00476  -0.00508   1.90518
   A24        1.90945  -0.00038   0.00000  -0.02136  -0.02153   1.88792
   A25        1.91009   0.00567   0.00000   0.03075   0.03054   1.94063
   A26        1.91105   0.00136   0.00000   0.00611   0.00602   1.91707
   A27        1.91143   0.00211   0.00000   0.00993   0.00981   1.92125
   A28        1.90890  -0.00314   0.00000  -0.01435  -0.01453   1.89437
   A29        1.91012  -0.00351   0.00000  -0.01623  -0.01646   1.89367
   A30        1.91220  -0.00250   0.00000  -0.01620  -0.01620   1.89601
    D1        2.40397   0.00023   0.00000   0.01458   0.01463   2.41861
    D2        0.30976  -0.00035   0.00000   0.00665   0.00653   0.31630
    D3       -1.78528   0.00223   0.00000   0.03551   0.03559  -1.74969
    D4       -1.78492   0.00043   0.00000   0.01672   0.01682  -1.76809
    D5        2.40406  -0.00015   0.00000   0.00879   0.00872   2.41278
    D6        0.30901   0.00243   0.00000   0.03765   0.03778   0.34679
    D7        0.30982   0.00009   0.00000   0.01302   0.01301   0.32283
    D8       -1.78439  -0.00049   0.00000   0.00509   0.00491  -1.77948
    D9        2.40375   0.00209   0.00000   0.03395   0.03396   2.43771
   D10       -1.25678   0.00053   0.00000   0.01925   0.01954  -1.23724
   D11        2.93317  -0.00153   0.00000  -0.00581  -0.00575   2.92743
   D12        0.83767   0.00239   0.00000   0.03447   0.03444   0.87211
   D13        0.83818   0.00279   0.00000   0.03998   0.04002   0.87820
   D14       -1.25506   0.00072   0.00000   0.01493   0.01474  -1.24032
   D15        2.93262   0.00464   0.00000   0.05521   0.05492   2.98755
   D16        2.93237  -0.00136   0.00000  -0.00285  -0.00263   2.92975
   D17        0.83914  -0.00342   0.00000  -0.02790  -0.02791   0.81123
   D18       -1.25637   0.00050   0.00000   0.01238   0.01228  -1.24409
   D19       -2.51390  -0.00186   0.00000  -0.03012  -0.03005  -2.54394
   D20        1.67399  -0.00235   0.00000  -0.03698  -0.03705   1.63694
   D21       -0.41977  -0.00015   0.00000  -0.01227  -0.01217  -0.43193
   D22       -0.42019   0.00089   0.00000  -0.00139  -0.00132  -0.42151
   D23       -2.51548   0.00040   0.00000  -0.00824  -0.00833  -2.52381
   D24        1.67394   0.00259   0.00000   0.01647   0.01656   1.69050
   D25        1.67431  -0.00237   0.00000  -0.03571  -0.03573   1.63858
   D26       -0.42098  -0.00286   0.00000  -0.04257  -0.04273  -0.46371
   D27       -2.51474  -0.00067   0.00000  -0.01786  -0.01785  -2.53259
   D28       -3.14042   0.00000   0.00000   0.00352   0.00359  -3.13683
   D29        1.05058  -0.00045   0.00000  -0.00144  -0.00140   1.04918
   D30       -1.04649   0.00047   0.00000   0.00856   0.00871  -1.03778
   D31       -1.04437   0.00208   0.00000   0.02272   0.02258  -1.02180
   D32       -3.13657   0.00163   0.00000   0.01777   0.01759  -3.11898
   D33        1.04955   0.00255   0.00000   0.02777   0.02770   1.07726
   D34        1.04836  -0.00172   0.00000  -0.01636  -0.01633   1.03203
   D35       -1.04383  -0.00218   0.00000  -0.02131  -0.02131  -1.06515
   D36       -3.14090  -0.00125   0.00000  -0.01131  -0.01120   3.13108
         Item               Value     Threshold  Converged?
 Maximum Force            0.034166     0.000450     NO 
 RMS     Force            0.013146     0.000300     NO 
 Maximum Displacement     0.183613     0.001800     NO 
 RMS     Displacement     0.063228     0.001200     NO 
 Predicted change in Energy=-1.959725D-02
 GradGradGradGradGradGradGradGradGradGradGradGradGradGradGradGradGradGrad

                          Input orientation:                          
 ---------------------------------------------------------------------
 Center     Atomic      Atomic             Coordinates (Angstroms)
 Number     Number       Type             X           Y           Z
 ---------------------------------------------------------------------
      1          6           0       -0.020491   -0.042770   -0.044242
      2          6           0        1.167737    0.943062   -0.229034
      3          6           0        1.743884    1.414976    1.123331
      4          6           0        0.786132    2.376873    1.876358
      5          6           0        1.559179    3.446716    2.670857
      6          1           0       -0.823503    0.166377   -0.750164
      7          1           0        0.306398   -1.069996   -0.200461
      8          1           0       -0.430878    0.032774    0.962320
      9          1           0        0.877613    4.114120    3.199819
     10          1           0        0.835462    1.819121   -0.786319
     11          1           0        1.955725    0.454893   -0.803773
     12          1           0        2.696524    1.921151    0.955063
     13          1           0        1.929544    0.535623    1.742932
     14          1           0        0.165895    1.810210    2.571540
     15          1           0        0.129116    2.869463    1.158042
     16          1           0        2.170128    4.042077    1.992133
     17          1           0        2.213536    2.970331    3.401597
 ---------------------------------------------------------------------
                    Distance matrix (angstroms):
                    1          2          3          4          5
     1  C    0.000000
     2  C    1.554960   0.000000
     3  C    2.569294   1.543871   0.000000
     4  C    3.192808   2.575677   1.552283   0.000000
     5  C    4.695065   3.851088   2.560648   1.540583   0.000000
     6  H    1.089447   2.199967   3.414741   3.791548   5.304827
     7  H    1.089244   2.189777   3.161309   4.052681   5.496782
     8  H    1.089630   2.191693   2.581859   2.794884   4.305163
     9  H    5.348857   4.679403   3.513916   2.185851   1.090762
    10  H    2.179444   1.090162   2.152981   2.720914   3.889075
    11  H    2.174854   1.090669   2.163416   3.499294   4.602315
    12  H    3.498253   2.167010   1.091811   2.169347   2.562197
    13  H    2.707613   2.152906   1.091621   2.171496   3.077772
    14  H    3.211011   3.098200   2.177973   1.090448   2.151571
    15  H    3.154200   2.591088   2.173526   1.091006   2.160304
    16  H    5.062767   3.942368   2.799671   2.168352   1.090128
    17  H    5.093473   4.287773   2.798249   2.171642   1.090462
                    6          7          8          9         10
     6  H    0.000000
     7  H    1.762801   0.000000
     8  H    1.761989   1.764012   0.000000
     9  H    5.837880   6.226014   4.834867   0.000000
    10  H    2.342016   2.995018   2.802212   4.599793   0.000000
    11  H    2.794678   2.325844   2.998857   5.530011   1.765336
    12  H    4.286913   3.999362   3.653309   3.627187   2.550760
    13  H    3.732444   2.998231   2.536495   4.004338   3.039983
    14  H    3.835989   3.999914   2.470830   2.491843   3.423977
    15  H    3.443168   4.170887   2.898052   2.505648   2.320061
    16  H    5.612760   5.866365   4.888789   1.770393   3.800350
    17  H    5.858574   5.739010   4.644593   1.770215   4.556646
                   11         12         13         14         15
    11  H    0.000000
    12  H    2.406699   0.000000
    13  H    2.548119   1.768809   0.000000
    14  H    4.053777   3.004894   2.328437   0.000000
    15  H    3.607682   2.744464   3.005071   1.766734   0.000000
    16  H    4.553125   2.418870   3.523521   3.055142   2.497291
    17  H    4.907039   2.705473   2.959667   2.495538   3.064070
                   16         17
    16  H    0.000000
    17  H    1.771189   0.000000
 Stoichiometry    C5H12
 Framework group  C1[X(C5H12)]
 Deg. of freedom    45
 Full point group                 C1      NOp   1
 Largest Abelian subgroup         C1      NOp   1
 Largest concise Abelian subgroup C1      NOp   1
                         Standard orientation:                         
 ---------------------------------------------------------------------
 Center     Atomic      Atomic             Coordinates (Angstroms)
 Number     Number       Type             X           Y           Z
 ---------------------------------------------------------------------
      1          6           0       -2.203438   -0.581504   -0.098903
      2          6           0       -1.316458    0.612703    0.353905
      3          6           0        0.041423    0.636138   -0.380363
      4          6           0        0.983988   -0.511068    0.072485
      5          6           0        2.461453   -0.074759    0.061222
      6          1           0       -2.708547   -1.044583    0.748043
      7          1           0       -2.964116   -0.247900   -0.803552
      8          1           0       -1.600237   -1.345716   -0.588210
      9          1           0        3.115399   -0.888951    0.376195
     10          1           0       -1.127420    0.544837    1.425405
     11          1           0       -1.844261    1.547599    0.161673
     12          1           0        0.534546    1.593546   -0.200773
     13          1           0       -0.146150    0.544670   -1.451852
     14          1           0        0.870499   -1.366478   -0.594203
     15          1           0        0.711605   -0.826947    1.080613
     16          1           0        2.603973    0.766529    0.739678
     17          1           0        2.752896    0.234326   -0.943086
 ---------------------------------------------------------------------
 Rotational constants (GHZ):          12.1564937           2.2443983           2.0886255
 Standard basis: 6-31G(d) (6D, 7F)
 There are    99 symmetry adapted cartesian basis functions of A   symmetry.
 There are    99 symmetry adapted basis functions of A   symmetry.
    99 basis functions,   188 primitive gaussians,    99 cartesian basis functions
    21 alpha electrons       21 beta electrons
       nuclear repulsion energy       186.7288097974 Hartrees.
 NAtoms=   17 NActive=   17 NUniq=   17 SFac= 1.00D+00 NAtFMM=   60 NAOKFM=F Big=F
 Integral buffers will be    131072 words long.
 Raffenetti 2 integral format.
 Two-electron integral symmetry is turned on.
 Nuclear repulsion after empirical dispersion term =      186.7285141480 Hartrees.
 One-electron integrals computed using PRISM.
 NBasis=    99 RedAO= T EigKep=  4.45D-03  NBF=    99
 NBsUse=    99 1.00D-06 EigRej= -1.00D+00 NBFU=    99
 Initial guess from the checkpoint file:  "pentane_19.chk"
 B after Tr=     0.000000    0.000000    0.000000
         Rot=    0.999994    0.003376   -0.000144    0.000124 Ang=   0.39 deg.
 ExpMin= 1.61D-01 ExpMax= 3.05D+03 ExpMxC= 4.57D+02 IAcc=2 IRadAn=         4 AccDes= 0.00D+00
 Harris functional with IExCor= 1009 and IRadAn=       4 diagonalized for initial guess.
 HarFok:  IExCor= 1009 AccDes= 0.00D+00 IRadAn=         4 IDoV= 1 UseB2=F ITyADJ=14
 ICtDFT=  3500011 ScaDFX=  1.000000  1.000000  1.000000  1.000000
 FoFCou: FMM=F IPFlag=           0 FMFlag=      100000 FMFlg1=           0
         NFxFlg=           0 DoJE=T BraDBF=F KetDBF=T FulRan=T
         wScrn=  0.000000 ICntrl=       500 IOpCl=  0 I1Cent=   200000004 NGrid=           0
         NMat0=    1 NMatS0=      1 NMatT0=    0 NMatD0=    1 NMtDS0=    0 NMtDT0=    0
 Petite list used in FoFCou.
 Keep R1 ints in memory in canonical form, NReq=15944043.
 Requested convergence on RMS density matrix=1.00D-08 within 128 cycles.
 Requested convergence on MAX density matrix=1.00D-06.
 Requested convergence on             energy=1.00D-06.
 No special actions if energy rises.
 Integral accuracy reduced to 1.0D-05 until final iterations.
 Initial convergence to 1.0D-05 achieved.  Increase integral accuracy.
 SCF Done:  E(RM062X) =  -197.641759599     A.U. after   11 cycles
            NFock= 11  Conv=0.33D-08     -V/T= 2.0093
 Calling FoFJK, ICntrl=      2127 FMM=F ISym2X=0 I1Cent= 0 IOpClX= 0 NMat=1 NMatS=1 NMatT=0.
 ***** Axes restored to original set *****
 -------------------------------------------------------------------
 Center     Atomic                   Forces (Hartrees/Bohr)
 Number     Number              X              Y              Z
 -------------------------------------------------------------------
      1        6           0.008795873    0.008141741   -0.003257134
      2        6          -0.005063965   -0.006098346    0.012979122
      3        6          -0.012783501    0.003435800   -0.005820275
      4        6           0.014381799    0.000012866    0.002143787
      5        6          -0.006930208   -0.007757670   -0.004942970
      6        1          -0.001951323   -0.001026474   -0.001636279
      7        1          -0.000214240   -0.002974963    0.001160939
      8        1          -0.002520483    0.000122573    0.002391134
      9        1          -0.000488651    0.001515156    0.001467501
     10        1           0.000813819    0.002719711   -0.003083133
     11        1           0.001339361    0.000437261   -0.003312742
     12        1           0.003173366    0.000555750   -0.000305255
     13        1           0.004646189   -0.001625029    0.002497643
     14        1          -0.004794710   -0.000983388   -0.000197570
     15        1          -0.003381493    0.001121592   -0.001626754
     16        1           0.002401741    0.002256197   -0.000446855
     17        1           0.002576426    0.000147222    0.001988840
 -------------------------------------------------------------------
 Cartesian Forces:  Max     0.014381799 RMS     0.004656335

 GradGradGradGradGradGradGradGradGradGradGradGradGradGradGradGradGradGrad
 Berny optimization.
 Using GEDIIS/GDIIS optimizer.
 FormGI is forming the generalized inverse of G from B-inverse, IUseBI=4.
 Internal  Forces:  Max     0.006000700 RMS     0.001850275
 Search for a local minimum.
 Step number   2 out of a maximum of  102
 All quantities printed in internal units (Hartrees-Bohrs-Radians)
 Mixed Optimization -- RFO/linear search
 Update second derivatives using D2CorX and points    1    2
 DE= -1.89D-02 DEPred=-1.96D-02 R= 9.63D-01
 TightC=F SS=  1.41D+00  RLast= 3.28D-01 DXNew= 5.0454D-01 9.8477D-01
 Trust test= 9.63D-01 RLast= 3.28D-01 DXMaxT set to 5.05D-01
 ITU=  1  0
 Use linear search instead of GDIIS.
     Eigenvalues ---    0.00233   0.00237   0.00240   0.00243   0.03502
     Eigenvalues ---    0.03549   0.03574   0.04775   0.04795   0.04803
     Eigenvalues ---    0.05422   0.05484   0.05499   0.05622   0.08077
     Eigenvalues ---    0.08115   0.08199   0.12022   0.12060   0.12128
     Eigenvalues ---    0.15819   0.16000   0.16000   0.16000   0.16000
     Eigenvalues ---    0.16049   0.21951   0.21962   0.22153   0.28186
     Eigenvalues ---    0.28503   0.28547   0.28676   0.39580   0.39792
     Eigenvalues ---    0.39812   0.39839   0.39855   0.39897   0.39903
     Eigenvalues ---    0.39911   0.39945   0.39955   0.39971   0.40881
 RFO step:  Lambda=-3.54092686D-03 EMin= 2.32695275D-03
 Quartic linear search produced a step of  0.12461.
 Iteration  1 RMS(Cart)=  0.10421198 RMS(Int)=  0.00611716
 Iteration  2 RMS(Cart)=  0.00727344 RMS(Int)=  0.00006540
 Iteration  3 RMS(Cart)=  0.00004084 RMS(Int)=  0.00005621
 Iteration  4 RMS(Cart)=  0.00000000 RMS(Int)=  0.00005621
 Variable       Old X    -DE/DX   Delta X   Delta X   Delta X     New X
                                 (Linear)    (Quad)   (Total)
    R1        2.93845  -0.00600   0.00362  -0.02606  -0.02244   2.91601
    R2        2.05876   0.00230   0.00933  -0.00107   0.00826   2.06702
    R3        2.05837   0.00257   0.00928  -0.00027   0.00901   2.06738
    R4        2.05910   0.00317   0.00921   0.00145   0.01066   2.06976
    R5        2.91749  -0.00544   0.00084  -0.02174  -0.02091   2.89659
    R6        2.06011   0.00351   0.00960   0.00207   0.01166   2.07177
    R7        2.06107   0.00252   0.00977  -0.00084   0.00893   2.07000
    R8        2.93339  -0.00539   0.00295  -0.02319  -0.02024   2.91315
    R9        2.06322   0.00307   0.00969   0.00081   0.01050   2.07373
   R10        2.06287   0.00352   0.00981   0.00193   0.01173   2.07460
   R11        2.91128  -0.00489   0.00013  -0.01901  -0.01888   2.89240
   R12        2.06065   0.00311   0.00967   0.00090   0.01056   2.07121
   R13        2.06170   0.00361   0.00975   0.00223   0.01198   2.07368
   R14        2.06124   0.00194   0.00948  -0.00217   0.00731   2.06855
   R15        2.06004   0.00286   0.00935   0.00047   0.00982   2.06987
   R16        2.06067   0.00281   0.00958   0.00015   0.00973   2.07041
    A1        1.94392   0.00120   0.00424   0.00549   0.00963   1.95356
    A2        1.92999   0.00147   0.00251   0.00846   0.01088   1.94088
    A3        1.93224   0.00090   0.00266   0.00313   0.00573   1.93797
    A4        1.88527  -0.00122  -0.00324  -0.00391  -0.00727   1.87800
    A5        1.88352  -0.00118  -0.00338  -0.00603  -0.00947   1.87404
    A6        1.88693  -0.00135  -0.00302  -0.00804  -0.01110   1.87584
    A7        1.95504   0.00051   0.00551   0.00443   0.00982   1.96486
    A8        1.91486  -0.00008   0.00045   0.00220   0.00259   1.91745
    A9        1.90810   0.00057  -0.00029   0.00821   0.00786   1.91596
   A10        1.89219   0.00042  -0.00223   0.00819   0.00586   1.89805
   A11        1.90582  -0.00028  -0.00055   0.00023  -0.00046   1.90536
   A12        1.88653  -0.00121  -0.00304  -0.02445  -0.02749   1.85903
   A13        1.96502   0.00063   0.00687   0.00450   0.01122   1.97625
   A14        1.90956  -0.00010  -0.00015   0.00277   0.00246   1.91202
   A15        1.89065   0.00043  -0.00260   0.00879   0.00611   1.89676
   A16        1.90269   0.00041  -0.00091   0.00766   0.00661   1.90929
   A17        1.90579  -0.00015  -0.00060   0.00191   0.00125   1.90703
   A18        1.88866  -0.00130  -0.00279  -0.02711  -0.02990   1.85876
   A19        1.95077   0.00027   0.00497   0.00419   0.00904   1.95981
   A20        1.91579   0.00022   0.00049   0.00374   0.00416   1.91995
   A21        1.90916   0.00003  -0.00019   0.00227   0.00197   1.91113
   A22        1.89390   0.00032  -0.00209   0.00794   0.00575   1.89965
   A23        1.90518   0.00047  -0.00063   0.00796   0.00725   1.91243
   A24        1.88792  -0.00137  -0.00268  -0.02718  -0.02986   1.85806
   A25        1.94063   0.00067   0.00381   0.00232   0.00605   1.94668
   A26        1.91707   0.00186   0.00075   0.01209   0.01278   1.92985
   A27        1.92125   0.00161   0.00122   0.00937   0.01053   1.93178
   A28        1.89437  -0.00119  -0.00181  -0.00541  -0.00730   1.88707
   A29        1.89367  -0.00119  -0.00205  -0.00649  -0.00860   1.88507
   A30        1.89601  -0.00189  -0.00202  -0.01268  -0.01475   1.88126
    D1        2.41861   0.00072   0.00182   0.12645   0.12825   2.54686
    D2        0.31630  -0.00009   0.00081   0.11172   0.11249   0.42879
    D3       -1.74969   0.00108   0.00443   0.13526   0.13972  -1.60998
    D4       -1.76809   0.00095   0.00210   0.13082   0.13293  -1.63516
    D5        2.41278   0.00015   0.00109   0.11610   0.11718   2.52996
    D6        0.34679   0.00132   0.00471   0.13963   0.14440   0.49119
    D7        0.32283   0.00080   0.00162   0.12831   0.12991   0.45274
    D8       -1.77948  -0.00001   0.00061   0.11358   0.11415  -1.66533
    D9        2.43771   0.00117   0.00423   0.13712   0.14138   2.57909
   D10       -1.23724   0.00077   0.00243   0.10235   0.10480  -1.13244
   D11        2.92743  -0.00010  -0.00072   0.08768   0.08694   3.01437
   D12        0.87211   0.00127   0.00429   0.11360   0.11790   0.99001
   D13        0.87820   0.00127   0.00499   0.11345   0.11844   0.99664
   D14       -1.24032   0.00041   0.00184   0.09877   0.10059  -1.13973
   D15        2.98755   0.00177   0.00684   0.12470   0.13155   3.11909
   D16        2.92975  -0.00009  -0.00033   0.08896   0.08864   3.01839
   D17        0.81123  -0.00096  -0.00348   0.07428   0.07079   0.88202
   D18       -1.24409   0.00041   0.00153   0.10021   0.10175  -1.14234
   D19       -2.54394  -0.00064  -0.00374  -0.13250  -0.13625  -2.68019
   D20        1.63694  -0.00137  -0.00462  -0.14775  -0.15240   1.48454
   D21       -0.43193   0.00015  -0.00152  -0.11822  -0.11973  -0.55167
   D22       -0.42151  -0.00007  -0.00017  -0.12066  -0.12078  -0.54230
   D23       -2.52381  -0.00080  -0.00104  -0.13590  -0.13694  -2.66075
   D24        1.69050   0.00072   0.00206  -0.10638  -0.10427   1.58623
   D25        1.63858  -0.00149  -0.00445  -0.14781  -0.15227   1.48632
   D26       -0.46371  -0.00221  -0.00532  -0.16306  -0.16842  -0.63213
   D27       -2.53259  -0.00070  -0.00222  -0.13353  -0.13575  -2.66834
   D28       -3.13683   0.00011   0.00045   0.01890   0.01937  -3.11746
   D29        1.04918  -0.00006  -0.00017   0.01622   0.01605   1.06523
   D30       -1.03778   0.00012   0.00109   0.01847   0.01958  -1.01820
   D31       -1.02180   0.00077   0.00281   0.03154   0.03436  -0.98743
   D32       -3.11898   0.00060   0.00219   0.02886   0.03105  -3.08792
   D33        1.07726   0.00077   0.00345   0.03111   0.03457   1.11183
   D34        1.03203  -0.00042  -0.00203   0.00795   0.00590   1.03793
   D35       -1.06515  -0.00059  -0.00266   0.00527   0.00259  -1.06256
   D36        3.13108  -0.00042  -0.00140   0.00752   0.00611   3.13719
         Item               Value     Threshold  Converged?
 Maximum Force            0.006001     0.000450     NO 
 RMS     Force            0.001850     0.000300     NO 
 Maximum Displacement     0.460076     0.001800     NO 
 RMS     Displacement     0.104398     0.001200     NO 
 Predicted change in Energy=-2.388467D-03
 GradGradGradGradGradGradGradGradGradGradGradGradGradGradGradGradGradGrad

                          Input orientation:                          
 ---------------------------------------------------------------------
 Center     Atomic      Atomic             Coordinates (Angstroms)
 Number     Number       Type             X           Y           Z
 ---------------------------------------------------------------------
      1          6           0       -0.033733   -0.013612    0.001478
      2          6           0        1.168241    0.922223   -0.244662
      3          6           0        1.767331    1.465615    1.057381
      4          6           0        0.801292    2.380630    1.835814
      5          6           0        1.541106    3.392000    2.714744
      6          1           0       -0.787483    0.073677   -0.786354
      7          1           0        0.281735   -1.060329    0.043001
      8          1           0       -0.525506    0.219683    0.951926
      9          1           0        0.844070    4.018760    3.280012
     10          1           0        0.859866    1.767862   -0.870561
     11          1           0        1.945155    0.388672   -0.802890
     12          1           0        2.690712    2.015430    0.835373
     13          1           0        2.054443    0.617779    1.692968
     14          1           0        0.141617    1.776801    2.469470
     15          1           0        0.151944    2.913124    1.129442
     16          1           0        2.168860    4.047838    2.101930
     17          1           0        2.192350    2.878845    3.430928
 ---------------------------------------------------------------------
                    Distance matrix (angstroms):
                    1          2          3          4          5
     1  C    0.000000
     2  C    1.543086   0.000000
     3  C    2.558686   1.532808   0.000000
     4  C    3.129608   2.567096   1.541572   0.000000
     5  C    4.630348   3.872584   2.551272   1.530592   0.000000
     6  H    1.093818   2.199617   3.444405   3.836927   5.356424
     7  H    1.094011   2.190697   3.101025   3.914629   5.342982
     8  H    1.095270   2.189558   2.611622   2.685394   4.176363
     9  H    5.270611   4.702867   3.508711   2.184264   1.094630
    10  H    2.175459   1.096335   2.152163   2.775497   3.994537
    11  H    2.173670   1.095395   2.156857   3.498439   4.642949
    12  H    3.497856   2.163214   1.097368   2.168908   2.597802
    13  H    2.760484   2.152313   1.097830   2.167587   3.000640
    14  H    3.054064   3.025025   2.175725   1.096039   2.151185
    15  H    3.142064   2.623873   2.170243   1.097344   2.161544
    16  H    5.075302   4.034501   2.814282   2.172704   1.095326
    17  H    5.008280   4.288021   2.794921   2.174315   1.095612
                    6          7          8          9         10
     6  H    0.000000
     7  H    1.765510   0.000000
     8  H    1.763963   1.765280   0.000000
     9  H    5.895844   6.049100   4.661406   0.000000
    10  H    2.364554   3.027787   2.763616   4.721658   0.000000
    11  H    2.750782   2.362647   3.035144   5.573151   1.756301
    12  H    4.300959   3.986391   3.685424   3.660557   2.514657
    13  H    3.810463   2.946342   2.713625   3.943397   3.053095
    14  H    3.790020   3.735866   2.274337   2.485317   3.416398
    15  H    3.551797   4.121351   2.782998   2.515237   2.410974
    16  H    5.733769   5.821838   4.820465   1.773074   3.968307
    17  H    5.876550   5.535846   4.539089   1.772016   4.638168
                   11         12         13         14         15
    11  H    0.000000
    12  H    2.426129   0.000000
    13  H    2.508733   1.758902   0.000000
    14  H    3.985974   3.037286   2.367528   0.000000
    15  H    3.649982   2.708815   3.034085   1.756990   0.000000
    16  H    4.677341   2.450955   3.456247   3.066335   2.510230
    17  H    4.918056   2.780423   2.855160   2.518810   3.075917
                   16         17
    16  H    0.000000
    17  H    1.770122   0.000000
 Stoichiometry    C5H12
 Framework group  C1[X(C5H12)]
 Deg. of freedom    45
 Full point group                 C1      NOp   1
 Largest Abelian subgroup         C1      NOp   1
 Largest concise Abelian subgroup C1      NOp   1
                         Standard orientation:                         
 ---------------------------------------------------------------------
 Center     Atomic      Atomic             Coordinates (Angstroms)
 Number     Number       Type             X           Y           Z
 ---------------------------------------------------------------------
      1          6           0       -2.151608   -0.621567   -0.116747
      2          6           0       -1.345101    0.619492    0.319640
      3          6           0        0.044032    0.675471   -0.325863
      4          6           0        0.966164   -0.478690    0.114622
      5          6           0        2.447657   -0.104870    0.024347
      6          1           0       -2.792467   -0.995618    0.686885
      7          1           0       -2.793290   -0.395325   -0.973438
      8          1           0       -1.485605   -1.439578   -0.411558
      9          1           0        3.091473   -0.940557    0.316481
     10          1           0       -1.227594    0.622990    1.409654
     11          1           0       -1.897863    1.529735    0.063122
     12          1           0        0.521314    1.634454   -0.087597
     13          1           0       -0.073999    0.648536   -1.416997
     14          1           0        0.785327   -1.361885   -0.508728
     15          1           0        0.722505   -0.769658    1.144249
     16          1           0        2.671319    0.743092    0.680605
     17          1           0        2.712018    0.184795   -0.998675
 ---------------------------------------------------------------------
 Rotational constants (GHZ):          11.9565234           2.2891883           2.1075535
 Standard basis: 6-31G(d) (6D, 7F)
 There are    99 symmetry adapted cartesian basis functions of A   symmetry.
 There are    99 symmetry adapted basis functions of A   symmetry.
    99 basis functions,   188 primitive gaussians,    99 cartesian basis functions
    21 alpha electrons       21 beta electrons
       nuclear repulsion energy       187.2495224980 Hartrees.
 NAtoms=   17 NActive=   17 NUniq=   17 SFac= 1.00D+00 NAtFMM=   60 NAOKFM=F Big=F
 Integral buffers will be    131072 words long.
 Raffenetti 2 integral format.
 Two-electron integral symmetry is turned on.
 Nuclear repulsion after empirical dispersion term =      187.2492258951 Hartrees.
 One-electron integrals computed using PRISM.
 NBasis=    99 RedAO= T EigKep=  4.33D-03  NBF=    99
 NBsUse=    99 1.00D-06 EigRej= -1.00D+00 NBFU=    99
 Initial guess from the checkpoint file:  "pentane_19.chk"
 B after Tr=     0.000000   -0.000000   -0.000000
         Rot=    0.999970    0.006617    0.003512   -0.001983 Ang=   0.89 deg.
 ExpMin= 1.61D-01 ExpMax= 3.05D+03 ExpMxC= 4.57D+02 IAcc=2 IRadAn=         4 AccDes= 0.00D+00
 Harris functional with IExCor= 1009 and IRadAn=       4 diagonalized for initial guess.
 HarFok:  IExCor= 1009 AccDes= 0.00D+00 IRadAn=         4 IDoV= 1 UseB2=F ITyADJ=14
 ICtDFT=  3500011 ScaDFX=  1.000000  1.000000  1.000000  1.000000
 FoFCou: FMM=F IPFlag=           0 FMFlag=      100000 FMFlg1=           0
         NFxFlg=           0 DoJE=T BraDBF=F KetDBF=T FulRan=T
         wScrn=  0.000000 ICntrl=       500 IOpCl=  0 I1Cent=   200000004 NGrid=           0
         NMat0=    1 NMatS0=      1 NMatT0=    0 NMatD0=    1 NMtDS0=    0 NMtDT0=    0
 Petite list used in FoFCou.
 Keep R1 ints in memory in canonical form, NReq=15944043.
 Requested convergence on RMS density matrix=1.00D-08 within 128 cycles.
 Requested convergence on MAX density matrix=1.00D-06.
 Requested convergence on             energy=1.00D-06.
 No special actions if energy rises.
 Integral accuracy reduced to 1.0D-05 until final iterations.
 Initial convergence to 1.0D-05 achieved.  Increase integral accuracy.
 SCF Done:  E(RM062X) =  -197.644608317     A.U. after   11 cycles
            NFock= 11  Conv=0.35D-08     -V/T= 2.0094
 Calling FoFJK, ICntrl=      2127 FMM=F ISym2X=0 I1Cent= 0 IOpClX= 0 NMat=1 NMatS=1 NMatT=0.
 ***** Axes restored to original set *****
 -------------------------------------------------------------------
 Center     Atomic                   Forces (Hartrees/Bohr)
 Number     Number              X              Y              Z
 -------------------------------------------------------------------
      1        6           0.002171197    0.001717021   -0.000839751
      2        6          -0.002569341   -0.001762590    0.002600259
      3        6          -0.003275653   -0.000396277    0.000104119
      4        6           0.003980172   -0.000361352    0.000735935
      5        6          -0.001183087   -0.001580318   -0.000637031
      6        1           0.000867537   -0.000869385   -0.000354649
      7        1           0.000097360    0.000207637    0.001272432
      8        1          -0.000730900    0.000188853   -0.001348597
      9        1           0.000574628   -0.000248970   -0.000082598
     10        1           0.000106152    0.000616836    0.000413053
     11        1          -0.000686622    0.000127233   -0.001095256
     12        1          -0.000544388    0.000552043   -0.000704671
     13        1           0.001702436    0.000710548    0.000929274
     14        1          -0.000802436    0.000174240   -0.001046359
     15        1           0.000287541    0.000531551   -0.000374543
     16        1          -0.000052445   -0.000009662    0.000541408
     17        1           0.000057848    0.000402592   -0.000113025
 -------------------------------------------------------------------
 Cartesian Forces:  Max     0.003980172 RMS     0.001196465

 GradGradGradGradGradGradGradGradGradGradGradGradGradGradGradGradGradGrad
 Berny optimization.
 Using GEDIIS/GDIIS optimizer.
 FormGI is forming the generalized inverse of G from B-inverse, IUseBI=4.
 Internal  Forces:  Max     0.002932267 RMS     0.000749485
 Search for a local minimum.
 Step number   3 out of a maximum of  102
 All quantities printed in internal units (Hartrees-Bohrs-Radians)
 Mixed Optimization -- En-DIIS/RFO-DIIS
 Update second derivatives using D2CorX and points    2    3
 DE= -2.85D-03 DEPred=-2.39D-03 R= 1.19D+00
 TightC=F SS=  1.41D+00  RLast= 6.56D-01 DXNew= 8.4853D-01 1.9670D+00
 Trust test= 1.19D+00 RLast= 6.56D-01 DXMaxT set to 8.49D-01
 ITU=  1  1  0
 Use linear search instead of GDIIS.
     Eigenvalues ---    0.00113   0.00237   0.00240   0.00328   0.03375
     Eigenvalues ---    0.03426   0.03458   0.04552   0.04735   0.04801
     Eigenvalues ---    0.05334   0.05389   0.05421   0.05508   0.08223
     Eigenvalues ---    0.08274   0.08386   0.12127   0.12209   0.12263
     Eigenvalues ---    0.15459   0.16000   0.16000   0.16000   0.16049
     Eigenvalues ---    0.16129   0.21672   0.21914   0.21956   0.27494
     Eigenvalues ---    0.28527   0.28554   0.29511   0.39639   0.39799
     Eigenvalues ---    0.39820   0.39847   0.39884   0.39897   0.39909
     Eigenvalues ---    0.39914   0.39946   0.39956   0.40022   0.42500
 RFO step:  Lambda=-2.54324576D-03 EMin= 1.12719867D-03
 Quartic linear search produced a step of  1.01931.
 Iteration  1 RMS(Cart)=  0.13407753 RMS(Int)=  0.04002715
 Iteration  2 RMS(Cart)=  0.04963968 RMS(Int)=  0.00220006
 Iteration  3 RMS(Cart)=  0.00232671 RMS(Int)=  0.00014506
 Iteration  4 RMS(Cart)=  0.00000504 RMS(Int)=  0.00014499
 Iteration  5 RMS(Cart)=  0.00000000 RMS(Int)=  0.00014499
 Variable       Old X    -DE/DX   Delta X   Delta X   Delta X     New X
                                 (Linear)    (Quad)   (Total)
    R1        2.91601  -0.00283  -0.02287  -0.00693  -0.02981   2.88620
    R2        2.06702  -0.00041   0.00842  -0.00335   0.00507   2.07209
    R3        2.06738  -0.00012   0.00918  -0.00247   0.00672   2.07410
    R4        2.06976  -0.00080   0.01087  -0.00580   0.00506   2.07482
    R5        2.89659  -0.00034  -0.02131   0.00592  -0.01539   2.88120
    R6        2.07177   0.00021   0.01189  -0.00207   0.00982   2.08159
    R7        2.07000   0.00001   0.00910  -0.00185   0.00725   2.07725
    R8        2.91315  -0.00293  -0.02063  -0.00841  -0.02905   2.88410
    R9        2.07373  -0.00004   0.01070  -0.00262   0.00808   2.08181
   R10        2.07460   0.00043   0.01196  -0.00117   0.01079   2.08539
   R11        2.89240  -0.00141  -0.01924  -0.00089  -0.02013   2.87226
   R12        2.07121  -0.00022   0.01077  -0.00336   0.00741   2.07862
   R13        2.07368   0.00033   0.01221  -0.00169   0.01052   2.08420
   R14        2.06855  -0.00055   0.00745  -0.00353   0.00392   2.07247
   R15        2.06987  -0.00034   0.01001  -0.00363   0.00639   2.07625
   R16        2.07041  -0.00023   0.00992  -0.00311   0.00681   2.07721
    A1        1.95356  -0.00023   0.00982  -0.00542   0.00432   1.95788
    A2        1.94088  -0.00006   0.01109  -0.00461   0.00641   1.94729
    A3        1.93797   0.00084   0.00584   0.00756   0.01334   1.95131
    A4        1.87800   0.00005  -0.00741   0.00089  -0.00660   1.87140
    A5        1.87404  -0.00027  -0.00966   0.00097  -0.00874   1.86531
    A6        1.87584  -0.00035  -0.01131   0.00083  -0.01054   1.86529
    A7        1.96486   0.00227   0.01001   0.01658   0.02627   1.99113
    A8        1.91745  -0.00041   0.00264   0.00343   0.00561   1.92307
    A9        1.91596  -0.00102   0.00802  -0.01640  -0.00837   1.90760
   A10        1.89805  -0.00054   0.00597   0.00101   0.00655   1.90460
   A11        1.90536  -0.00061  -0.00047  -0.00697  -0.00745   1.89791
   A12        1.85903   0.00020  -0.02802   0.00164  -0.02635   1.83268
   A13        1.97625   0.00173   0.01144   0.01221   0.02327   1.99951
   A14        1.91202  -0.00059   0.00251  -0.01041  -0.00784   1.90418
   A15        1.89676   0.00009   0.00623   0.01115   0.01697   1.91373
   A16        1.90929  -0.00085   0.00673  -0.01797  -0.01126   1.89803
   A17        1.90703  -0.00053   0.00127   0.00288   0.00347   1.91051
   A18        1.85876   0.00005  -0.03048   0.00181  -0.02860   1.83016
   A19        1.95981  -0.00003   0.00922  -0.00162   0.00743   1.96724
   A20        1.91995   0.00005   0.00424  -0.00100   0.00309   1.92304
   A21        1.91113  -0.00016   0.00201  -0.00292  -0.00108   1.91005
   A22        1.89965   0.00004   0.00586  -0.00126   0.00452   1.90417
   A23        1.91243   0.00026   0.00739   0.00155   0.00887   1.92130
   A24        1.85806  -0.00017  -0.03043   0.00566  -0.02474   1.83333
   A25        1.94668   0.00025   0.00617   0.00128   0.00736   1.95404
   A26        1.92985   0.00048   0.01302   0.00024   0.01315   1.94300
   A27        1.93178   0.00030   0.01073  -0.00111   0.00954   1.94132
   A28        1.88707  -0.00034  -0.00744  -0.00025  -0.00781   1.87927
   A29        1.88507  -0.00031  -0.00877  -0.00053  -0.00936   1.87571
   A30        1.88126  -0.00043  -0.01503   0.00034  -0.01479   1.86647
    D1        2.54686   0.00103   0.13072   0.17822   0.30899   2.85585
    D2        0.42879   0.00047   0.11466   0.16329   0.27788   0.70667
    D3       -1.60998   0.00107   0.14241   0.16891   0.31133  -1.29865
    D4       -1.63516   0.00089   0.13550   0.17244   0.30800  -1.32716
    D5        2.52996   0.00034   0.11944   0.15751   0.27689   2.80685
    D6        0.49119   0.00093   0.14719   0.16313   0.31034   0.80153
    D7        0.45274   0.00096   0.13242   0.17546   0.30793   0.76067
    D8       -1.66533   0.00041   0.11636   0.16053   0.27682  -1.38850
    D9        2.57909   0.00100   0.14411   0.16615   0.31027   2.88936
   D10       -1.13244  -0.00054   0.10682  -0.09061   0.01598  -1.11646
   D11        3.01437  -0.00022   0.08862  -0.06824   0.02025   3.03462
   D12        0.99001  -0.00001   0.12018  -0.07093   0.04934   1.03935
   D13        0.99664   0.00006   0.12073  -0.07461   0.04606   1.04270
   D14       -1.13973   0.00038   0.10253  -0.05224   0.05033  -1.08940
   D15        3.11909   0.00059   0.13409  -0.05493   0.07942  -3.08467
   D16        3.01839  -0.00034   0.09036  -0.07590   0.01431   3.03271
   D17        0.88202  -0.00002   0.07215  -0.05354   0.01859   0.90060
   D18       -1.14234   0.00019   0.10371  -0.05622   0.04768  -1.09466
   D19       -2.68019  -0.00031  -0.13888  -0.09796  -0.23679  -2.91698
   D20        1.48454  -0.00038  -0.15534  -0.09456  -0.24989   1.23466
   D21       -0.55167  -0.00012  -0.12205  -0.09913  -0.22115  -0.77281
   D22       -0.54230  -0.00050  -0.12312  -0.11612  -0.23924  -0.78154
   D23       -2.66075  -0.00057  -0.13958  -0.11273  -0.25234  -2.91308
   D24        1.58623  -0.00030  -0.10628  -0.11729  -0.22360   1.36263
   D25        1.48632  -0.00121  -0.15521  -0.12245  -0.27765   1.20866
   D26       -0.63213  -0.00128  -0.17167  -0.11905  -0.29075  -0.92288
   D27       -2.66834  -0.00101  -0.13838  -0.12361  -0.26201  -2.93035
   D28       -3.11746   0.00004   0.01974   0.00343   0.02320  -3.09426
   D29        1.06523  -0.00002   0.01636   0.00272   0.01910   1.08433
   D30       -1.01820   0.00001   0.01995   0.00286   0.02282  -0.99538
   D31       -0.98743   0.00011   0.03503   0.00022   0.03531  -0.95212
   D32       -3.08792   0.00005   0.03165  -0.00048   0.03121  -3.05672
   D33        1.11183   0.00009   0.03524  -0.00035   0.03493   1.14676
   D34        1.03793   0.00008   0.00601   0.00715   0.01312   1.05105
   D35       -1.06256   0.00002   0.00264   0.00644   0.00902  -1.05354
   D36        3.13719   0.00005   0.00623   0.00658   0.01274  -3.13325
         Item               Value     Threshold  Converged?
 Maximum Force            0.002932     0.000450     NO 
 RMS     Force            0.000749     0.000300     NO 
 Maximum Displacement     0.732987     0.001800     NO 
 RMS     Displacement     0.178376     0.001200     NO 
 Predicted change in Energy=-3.179364D-03
 GradGradGradGradGradGradGradGradGradGradGradGradGradGradGradGradGradGrad

                          Input orientation:                          
 ---------------------------------------------------------------------
 Center     Atomic      Atomic             Coordinates (Angstroms)
 Number     Number       Type             X           Y           Z
 ---------------------------------------------------------------------
      1          6           0       -0.028251   -0.043095    0.053061
      2          6           0        1.117070    0.917163   -0.261314
      3          6           0        1.752844    1.551749    0.970632
      4          6           0        0.819485    2.454689    1.772398
      5          6           0        1.558349    3.302689    2.794741
      6          1           0       -0.643196   -0.256833   -0.829251
      7          1           0        0.343227   -1.004296    0.430880
      8          1           0       -0.701290    0.362175    0.820047
      9          1           0        0.871888    3.911051    3.395926
     10          1           0        0.770386    1.713248   -0.939127
     11          1           0        1.895073    0.382598   -0.824578
     12          1           0        2.632709    2.137824    0.660831
     13          1           0        2.155748    0.762598    1.628437
     14          1           0        0.058119    1.851157    2.288131
     15          1           0        0.252573    3.101827    1.082303
     16          1           0        2.270010    3.984407    2.308989
     17          1           0        2.137256    2.676049    3.487893
 ---------------------------------------------------------------------
                    Distance matrix (angstroms):
                    1          2          3          4          5
     1  C    0.000000
     2  C    1.527314   0.000000
     3  C    2.560814   1.524664   0.000000
     4  C    3.148603   2.566813   1.526201   0.000000
     5  C    4.607427   3.901914   2.535940   1.519937   0.000000
     6  H    1.096501   2.190743   3.500223   4.032414   5.536273
     7  H    1.097566   2.184026   2.968454   3.740463   5.061075
     8  H    1.097949   2.187186   2.731399   2.756510   4.201430
     9  H    5.255499   4.732746   3.496347   2.181646   1.096703
    10  H    2.169562   1.101532   2.153715   2.811497   4.133882
    11  H    2.156535   1.099234   2.147073   3.492096   4.662594
    12  H    3.493780   2.153492   1.101645   2.150294   2.657956
    13  H    2.810837   2.161921   1.103539   2.160901   2.858184
    14  H    2.931073   2.914342   2.167381   1.099958   2.148090
    15  H    3.320954   2.706551   2.160099   1.102910   2.162832
    16  H    5.156741   4.164578   2.824267   2.175313   1.098705
    17  H    4.886843   4.265093   2.783599   2.174498   1.099214
                    6          7          8          9         10
     6  H    0.000000
     7  H    1.766257   0.000000
     8  H    1.762591   1.763437   0.000000
     9  H    6.125264   5.764686   4.658816   0.000000
    10  H    2.427243   3.073179   2.661940   4.861412   0.000000
    11  H    2.617576   2.430612   3.073485   5.595493   1.746045
    12  H    4.322763   3.894550   3.780718   3.704804   2.491661
    13  H    3.861808   2.800230   2.996081   3.832111   3.068444
    14  H    3.827993   3.418227   2.224644   2.476407   3.307799
    15  H    3.966993   4.158463   2.912787   2.528092   2.506484
    16  H    6.026892   5.668062   4.915906   1.772444   4.237604
    17  H    5.913581   5.109677   4.530868   1.770549   4.732212
                   11         12         13         14         15
    11  H    0.000000
    12  H    2.414822   0.000000
    13  H    2.495924   1.747856   0.000000
    14  H    3.901285   3.059214   2.453610   0.000000
    15  H    3.705160   2.602304   3.064691   1.748144   0.000000
    16  H    4.788825   2.501568   3.294884   3.073052   2.520666
    17  H    4.890397   2.920178   2.668185   2.538245   3.085480
                   16         17
    16  H    0.000000
    17  H    1.766136   0.000000
 Stoichiometry    C5H12
 Framework group  C1[X(C5H12)]
 Deg. of freedom    45
 Full point group                 C1      NOp   1
 Largest Abelian subgroup         C1      NOp   1
 Largest concise Abelian subgroup C1      NOp   1
                         Standard orientation:                         
 ---------------------------------------------------------------------
 Center     Atomic      Atomic             Coordinates (Angstroms)
 Number     Number       Type             X           Y           Z
 ---------------------------------------------------------------------
      1          6           0       -2.137398   -0.642707   -0.155892
[...]
 ! A22   A(5,4,14)             109.2923         -DE/DX =    0.0                 !
 ! A23   A(5,4,15)             109.7592         -DE/DX =    0.0                 !
 ! A24   A(14,4,15)            106.3605         -DE/DX =    0.0                 !
 ! A25   A(4,5,9)              111.6621         -DE/DX =    0.0                 !
 ! A26   A(4,5,16)             110.8966         -DE/DX =    0.0                 !
 ! A27   A(4,5,17)             110.7928         -DE/DX =    0.0                 !
 ! A28   A(9,5,16)             107.9098         -DE/DX =    0.0                 !
 ! A29   A(9,5,17)             107.847          -DE/DX =    0.0                 !
 ! A30   A(16,5,17)            107.5679         -DE/DX =    0.0                 !
 ! D1    D(6,1,2,3)           -174.5628         -DE/DX =    0.0                 !
 ! D2    D(6,1,2,10)            63.2265         -DE/DX =    0.0                 !
 ! D3    D(6,1,2,11)           -52.7968         -DE/DX =    0.0                 !
 ! D4    D(7,1,2,3)            -54.6613         -DE/DX =    0.0                 !
 ! D5    D(7,1,2,10)          -176.8721         -DE/DX =    0.0                 !
 ! D6    D(7,1,2,11)            67.1047         -DE/DX =    0.0                 !
 ! D7    D(8,1,2,3)             65.3451         -DE/DX =    0.0                 !
 ! D8    D(8,1,2,10)           -56.8657         -DE/DX =    0.0                 !
 ! D9    D(8,1,2,11)          -172.8889         -DE/DX =    0.0                 !
 ! D10   D(1,2,3,4)            -61.7236         -DE/DX =    0.0                 !
 ! D11   D(1,2,3,12)           176.4224         -DE/DX =    0.0                 !
 ! D12   D(1,2,3,13)            60.6393         -DE/DX =    0.0                 !
 ! D13   D(10,2,3,4)            60.6765         -DE/DX =    0.0                 !
 ! D14   D(10,2,3,12)          -61.1774         -DE/DX =    0.0                 !
 ! D15   D(10,2,3,13)         -176.9606         -DE/DX =    0.0                 !
 ! D16   D(11,2,3,4)           176.357          -DE/DX =    0.0                 !
 ! D17   D(11,2,3,12)           54.503          -DE/DX =    0.0                 !
 ! D18   D(11,2,3,13)          -61.2801         -DE/DX =    0.0                 !
 ! D19   D(2,3,4,5)           -174.9579         -DE/DX =    0.0                 !
 ! D20   D(2,3,4,14)            63.2164         -DE/DX =    0.0                 !
 ! D21   D(2,3,4,15)           -53.0262         -DE/DX =    0.0                 !
 ! D22   D(12,3,4,5)           -52.9025         -DE/DX =    0.0                 !
 ! D23   D(12,3,4,14)         -174.7281         -DE/DX =    0.0                 !
 ! D24   D(12,3,4,15)           69.0293         -DE/DX =    0.0                 !
 ! D25   D(13,3,4,5)            62.5451         -DE/DX =    0.0                 !
 ! D26   D(13,3,4,14)          -59.2806         -DE/DX =    0.0                 !
 ! D27   D(13,3,4,15)         -175.5232         -DE/DX =    0.0                 !
 ! D28   D(3,4,5,9)           -179.427          -DE/DX =    0.0                 !
 ! D29   D(3,4,5,16)            60.1868         -DE/DX =    0.0                 !
 ! D30   D(3,4,5,17)           -59.1914         -DE/DX =    0.0                 !
 ! D31   D(14,4,5,9)           -57.292          -DE/DX =    0.0                 !
 ! D32   D(14,4,5,16)         -177.6783         -DE/DX =    0.0                 !
 ! D33   D(14,4,5,17)           62.9436         -DE/DX =    0.0                 !
 ! D34   D(15,4,5,9)            58.994          -DE/DX =    0.0                 !
 ! D35   D(15,4,5,16)          -61.3923         -DE/DX =    0.0                 !
 ! D36   D(15,4,5,17)          179.2296         -DE/DX =    0.0                 !
 --------------------------------------------------------------------------------
 GradGradGradGradGradGradGradGradGradGradGradGradGradGradGradGradGradGrad

                          Input orientation:                          
 ---------------------------------------------------------------------
 Center     Atomic      Atomic             Coordinates (Angstroms)
 Number     Number       Type             X           Y           Z
 ---------------------------------------------------------------------
      1          6           0       -0.029312   -0.032645    0.104191
      2          6           0        1.088010    0.931178   -0.293056
      3          6           0        1.765251    1.607413    0.901310
      4          6           0        0.827730    2.474680    1.741541
      5          6           0        1.568086    3.225391    2.845889
      6          1           0       -0.421243   -0.564776   -0.767417
      7          1           0        0.337235   -0.780093    0.816907
      8          1           0       -0.866529    0.492299    0.573867
      9          1           0        0.886745    3.834532    3.446804
     10          1           0        0.685078    1.702572   -0.962279
     11          1           0        1.845073    0.387455   -0.870246
     12          1           0        2.593536    2.231017    0.539487
     13          1           0        2.217109    0.839484    1.545338
     14          1           0        0.045244    1.850711    2.189431
     15          1           0        0.314701    3.190701    1.085340
     16          1           0        2.330057    3.889254    2.423864
     17          1           0        2.075228    2.525826    3.519030
 ---------------------------------------------------------------------
                    Distance matrix (angstroms):
                    1          2          3          4          5
     1  C    0.000000
     2  C    1.528126   0.000000
     3  C    2.558445   1.530509   0.000000
     4  C    3.114822   2.567047   1.528753   0.000000
     5  C    4.547900   3.917507   2.537345   1.526853   0.000000
     6  H    1.093835   2.177325   3.504826   4.134380   5.601677
     7  H    1.095901   2.173506   2.783260   3.418929   4.655713
     8  H    1.094118   2.182749   2.876971   2.857238   4.308042
     9  H    5.193003   4.738831   3.494477   2.181880   1.093790
    10  H    2.158399   1.097844   2.156105   2.815518   4.195333
    11  H    2.153910   1.096325   2.152459   3.494700   4.684044
    12  H    3.491845   2.156228   1.098114   2.149972   2.712898
    13  H    2.807832   2.159390   1.099392   2.154701   2.793782
    14  H    2.810839   2.845284   2.162608   1.096461   2.154003
    15  H    3.386881   2.757431   2.155171   1.098401   2.161414
    16  H    5.131159   4.204111   2.800710   2.173378   1.095179
    17  H    4.757729   4.248471   2.791421   2.172173   1.095310
                    6          7          8          9         10
     6  H    0.000000
     7  H    1.769670   0.000000
     8  H    1.764860   1.768360   0.000000
     9  H    6.230923   5.339764   4.743232   0.000000
    10  H    2.530372   3.074105   2.496395   4.901625   0.000000
    11  H    2.460387   2.546219   3.073962   5.606929   1.756016
    12  H    4.314320   3.772883   3.872515   3.733214   2.485310
    13  H    3.779112   2.586033   3.251633   3.788899   3.062708
    14  H    3.846445   2.981646   2.299274   2.494926   3.219411
    15  H    4.251815   3.979921   2.989696   2.513615   2.558212
    16  H    6.131257   5.325077   5.017963   1.769901   4.353561
    17  H    5.844469   4.609901   4.632834   1.769299   4.763653
                   11         12         13         14         15
    11  H    0.000000
    12  H    2.438497   0.000000
    13  H    2.485515   1.757782   0.000000
    14  H    3.839548   3.059533   2.480813   0.000000
    15  H    3.744936   2.532200   3.059245   1.757042   0.000000
    16  H    4.832077   2.523895   3.175793   3.070990   2.518190
    17  H    4.887878   3.038624   2.599874   2.518819   3.076420
                   16         17
    16  H    0.000000
    17  H    1.767276   0.000000
 Stoichiometry    C5H12
 Framework group  C1[X(C5H12)]
 Deg. of freedom    45
 Full point group                 C1      NOp   1
 Largest Abelian subgroup         C1      NOp   1
 Largest concise Abelian subgroup C1      NOp   1
                         Standard orientation:                         
 ---------------------------------------------------------------------
 Center     Atomic      Atomic             Coordinates (Angstroms)
 Number     Number       Type             X           Y           Z
 ---------------------------------------------------------------------
      1          6           0       -2.092097   -0.683724   -0.168208
      2          6           0       -1.397101    0.612024    0.247946
      3          6           0        0.049746    0.713737   -0.240670
      4          6           0        0.971108   -0.376896    0.305863
      5          6           0        2.425857   -0.166265   -0.107201
      6          1           0       -3.148143   -0.675364    0.116697
      7          1           0       -2.038480   -0.822166   -1.254007
      8          1           0       -1.630801   -1.557513    0.301679
      9          1           0        3.074245   -0.957221    0.280558
     10          1           0       -1.414417    0.701444    1.342005
     11          1           0       -1.964385    1.466211   -0.139973
     12          1           0        0.456665    1.693830    0.041625
     13          1           0        0.065345    0.679232   -1.339410
     14          1           0        0.633546   -1.359359   -0.044911
     15          1           0        0.895329   -0.396730    1.401467
     16          1           0        2.803128    0.791731    0.266064
     17          1           0        2.522889   -0.157349   -1.198168
 ---------------------------------------------------------------------
 Rotational constants (GHZ):          11.6457980           2.3192471           2.1287137

 **********************************************************************

            Population analysis using the SCF density.

 **********************************************************************

 Orbital symmetries:
       Occupied  (A) (A) (A) (A) (A) (A) (A) (A) (A) (A) (A) (A)
                 (A) (A) (A) (A) (A) (A) (A) (A) (A)
       Virtual   (A) (A) (A) (A) (A) (A) (A) (A) (A) (A) (A) (A)
                 (A) (A) (A) (A) (A) (A) (A) (A) (A) (A) (A) (A)
                 (A) (A) (A) (A) (A) (A) (A) (A) (A) (A) (A) (A)
                 (A) (A) (A) (A) (A) (A) (A) (A) (A) (A) (A) (A)
                 (A) (A) (A) (A) (A) (A) (A) (A) (A) (A) (A) (A)
                 (A) (A) (A) (A) (A) (A) (A) (A) (A) (A) (A) (A)
                 (A) (A) (A) (A) (A) (A)
 The electronic state is 1-A.
 Alpha  occ. eigenvalues --  -10.53450 -10.53399 -10.53247 -10.52792 -10.52763
 Alpha  occ. eigenvalues --   -0.89803  -0.83964  -0.76095  -0.69004  -0.64014
 Alpha  occ. eigenvalues --   -0.53522  -0.51072  -0.49691  -0.47334  -0.44477
 Alpha  occ. eigenvalues --   -0.42961  -0.41507  -0.39737  -0.37549  -0.37416
 Alpha  occ. eigenvalues --   -0.36510
 Alpha virt. eigenvalues --    0.13227   0.15992   0.17200   0.17718   0.20804
 Alpha virt. eigenvalues --    0.21533   0.21652   0.22954   0.23454   0.23662
 Alpha virt. eigenvalues --    0.24849   0.26244   0.28978   0.29778   0.31109
 Alpha virt. eigenvalues --    0.32579   0.54508   0.55735   0.57927   0.58927
 Alpha virt. eigenvalues --    0.60060   0.62763   0.64137   0.72526   0.73226
 Alpha virt. eigenvalues --    0.74954   0.76245   0.78285   0.85566   0.90985
 Alpha virt. eigenvalues --    0.93544   0.94148   0.95245   0.96813   0.97484
 Alpha virt. eigenvalues --    0.98589   0.99186   1.02375   1.03247   1.03891
 Alpha virt. eigenvalues --    1.04664   1.05851   1.09011   1.11910   1.31321
 Alpha virt. eigenvalues --    1.46894   1.48585   1.49954   1.60935   1.63729
 Alpha virt. eigenvalues --    1.72569   1.73617   1.86996   1.89982   1.96552
 Alpha virt. eigenvalues --    1.99760   2.02211   2.04324   2.05550   2.09679
 Alpha virt. eigenvalues --    2.19542   2.22819   2.29997   2.35671   2.36941
 Alpha virt. eigenvalues --    2.40402   2.40908   2.45404   2.49540   2.60317
 Alpha virt. eigenvalues --    2.64871   2.72301   2.80067   4.15588   4.25023
 Alpha virt. eigenvalues --    4.36072   4.45803   4.56305
          Condensed to atoms (all electrons):
               1          2          3          4          5          6
     1  C    5.106519   0.361772  -0.052568  -0.004458   0.000129   0.382426
     2  C    0.361772   5.011230   0.372972  -0.047157   0.004307  -0.030222
     3  C   -0.052568   0.372972   5.037416   0.375569  -0.049887   0.004491
     4  C   -0.004458  -0.047157   0.375569   5.018962   0.363912   0.000116
     5  C    0.000129   0.004307  -0.049887   0.363912   5.093070  -0.000001
     6  H    0.382426  -0.030222   0.004491   0.000116  -0.000001   0.546653
     7  H    0.383489  -0.038636  -0.003614  -0.000919  -0.000038  -0.028378
     8  H    0.384345  -0.034061  -0.005575   0.003351  -0.000041  -0.028699
     9  H    0.000005  -0.000143   0.004375  -0.030131   0.381153  -0.000000
    10  H   -0.040741   0.385478  -0.039804  -0.006542   0.000002  -0.002187
    11  H   -0.039779   0.387237  -0.036127   0.004907  -0.000137  -0.003894
    12  H    0.005099  -0.035872   0.385051  -0.043542  -0.003666  -0.000129
    13  H   -0.005950  -0.038114   0.380545  -0.042349  -0.002773  -0.000039
    14  H    0.003371  -0.005033  -0.038274   0.386613  -0.038133  -0.000019
    15  H   -0.000950  -0.001983  -0.044762   0.386756  -0.038044  -0.000037
    16  H    0.000003  -0.000033  -0.004687  -0.036353   0.384238   0.000000
    17  H   -0.000016   0.000082  -0.004267  -0.036530   0.384231  -0.000000
               7          8          9         10         11         12
     1  C    0.383489   0.384345   0.000005  -0.040741  -0.039779   0.005099
     2  C   -0.038636  -0.034061  -0.000143   0.385478   0.387237  -0.035872
     3  C   -0.003614  -0.005575   0.004375  -0.039804  -0.036127   0.385051
     4  C   -0.000919   0.003351  -0.030131  -0.006542   0.004907  -0.043542
     5  C   -0.000038  -0.000041   0.381153   0.000002  -0.000137  -0.003666
     6  H   -0.028378  -0.028699  -0.000000  -0.002187  -0.003894  -0.000129
     7  H    0.557100  -0.030566   0.000000   0.005007  -0.003363   0.000023
     8  H   -0.030566   0.550527   0.000005  -0.004598   0.004710  -0.000060
     9  H    0.000000   0.000005   0.548355  -0.000000   0.000002   0.000022
    10  H    0.005007  -0.004598  -0.000000   0.582882  -0.034025  -0.003202
    11  H   -0.003363   0.004710   0.000002  -0.034025   0.576435  -0.003620
    12  H    0.000023  -0.000060   0.000022  -0.003202  -0.003620   0.583821
    13  H    0.005067  -0.000059  -0.000059   0.005518  -0.003300  -0.034655
    14  H    0.000433   0.000696  -0.002659  -0.000110  -0.000068   0.005360
    15  H    0.000113   0.000547  -0.002714   0.005187   0.000027  -0.004196
    16  H    0.000000  -0.000001  -0.028511   0.000003  -0.000005   0.004917
    17  H    0.000002   0.000008  -0.028622   0.000006   0.000003  -0.000371
              13         14         15         16         17
     1  C   -0.005950   0.003371  -0.000950   0.000003  -0.000016
     2  C   -0.038114  -0.005033  -0.001983  -0.000033   0.000082
     3  C    0.380545  -0.038274  -0.044762  -0.004687  -0.004267
     4  C   -0.042349   0.386613   0.386756  -0.036353  -0.036530
     5  C   -0.002773  -0.038133  -0.038044   0.384238   0.384231
     6  H   -0.000039  -0.000019  -0.000037   0.000000  -0.000000
     7  H    0.005067   0.000433   0.000113   0.000000   0.000002
     8  H   -0.000059   0.000696   0.000547  -0.000001   0.000008
     9  H   -0.000059  -0.002659  -0.002714  -0.028511  -0.028622
    10  H    0.005518  -0.000110   0.005187   0.000003   0.000006
    11  H   -0.003300  -0.000068   0.000027  -0.000005   0.000003
    12  H   -0.034655   0.005360  -0.004196   0.004917  -0.000371
    13  H    0.590317  -0.005395   0.005628  -0.000302   0.004200
    14  H   -0.005395   0.577424  -0.036313   0.004860  -0.004265
    15  H    0.005628  -0.036313   0.583783  -0.004302   0.004896
    16  H   -0.000302   0.004860  -0.004302   0.555474  -0.030420
    17  H    0.004200  -0.004265   0.004896  -0.030420   0.555618
 Mulliken charges:
               1
     1  C   -0.482697
     2  C   -0.291824
     3  C   -0.280855
     4  C   -0.292203
     5  C   -0.478323
     6  H    0.159919
     7  H    0.154280
     8  H    0.159470
     9  H    0.158923
    10  H    0.147127
    11  H    0.150998
    12  H    0.145021
    13  H    0.141721
    14  H    0.151513
    15  H    0.146364
    16  H    0.155119
    17  H    0.155447
 Sum of Mulliken charges =  -0.00000
 Mulliken charges with hydrogens summed into heavy atoms:
               1
     1  C   -0.009027
     2  C    0.006301
     3  C    0.005887
     4  C    0.005674
     5  C   -0.008834
 Electronic spatial extent (au):  <R**2>=            646.5829
 Charge=             -0.0000 electrons
 Dipole moment (field-independent basis, Debye):
    X=             -0.0312    Y=              0.0128    Z=              0.0261  Tot=              0.0426
 Quadrupole moment (field-independent basis, Debye-Ang):
   XX=            -35.3130   YY=            -34.9463   ZZ=            -34.6498
   XY=             -0.2152   XZ=              0.1316   YZ=              0.0537
 Traceless Quadrupole moment (field-independent basis, Debye-Ang):
   XX=             -0.3433   YY=              0.0234   ZZ=              0.3199
   XY=             -0.2152   XZ=              0.1316   YZ=              0.0537
 Octapole moment (field-independent basis, Debye-Ang**2):
  XXX=             -2.3270  YYY=              0.2696  ZZZ=             -0.5416  XYY=              0.9517
  XXY=              0.3234  XXZ=              0.8353  XZZ=              0.0850  YZZ=             -0.0894
  YYZ=              0.5058  XYZ=              0.4036
 Hexadecapole moment (field-independent basis, Debye-Ang**3):
 XXXX=           -668.5419 YYYY=           -142.7765 ZZZZ=            -80.8239 XXXY=             -3.4235
 XXXZ=              0.7707 YYYX=             -1.3275 YYYZ=             -0.3171 ZZZX=             -0.5523
 ZZZY=              0.7125 XXYY=           -134.4898 XXZZ=           -125.7523 YYZZ=            -39.1392
 XXYZ=             -1.0907 YYXZ=              1.3584 ZZXY=             -0.1560
 N-N= 1.877087401797D+02 E-N=-8.314525553627D+02  KE= 1.958246716016D+02
 1\1\GINC-ROBERTS-MACBOOK-PRO-2\FOpt\RM062X\6-31G(d)\C5H12\ROBERT.PATON
 \22-Sep-2018\0\\# opt=(maxcycles=160) M062X/6-31G(d) emp=GD3\\Generate
 d by prepare_file.py\\0,1\C,-0.029311639,-0.0326450307,0.1041906553\C,
 1.0880102014,0.9311781616,-0.2930559719\C,1.7652506218,1.6074128931,0.
 9013095424\C,0.8277299263,2.4746798748,1.7415409748\C,1.5680863195,3.2
 25391224,2.8458892104\H,-0.4212429238,-0.5647758368,-0.7674174455\H,0.
 3372345124,-0.7800926686,0.8169068223\H,-0.8665288309,0.492299198,0.57
 3867124\H,0.8867449735,3.8345318555,3.4468037107\H,0.685078165,1.70257
 22366,-0.9622785268\H,1.8450730249,0.3874548014,-0.8702462587\H,2.5935
 364487,2.2310172095,0.539487137\H,2.217109357,0.8394838506,1.545337604
 5\H,0.0452442021,1.8507114999,2.1894307709\H,0.3147013232,3.1907011706
 ,1.0853400731\H,2.3300565679,3.8892539093,2.4238641008\H,2.0752277501,
 2.5258256513,3.5190304767\\Version=EM64M-G16RevA.03\State=1-A\HF=-197.
 6496426\RMSD=6.411e-09\RMSF=2.686e-06\Dipole=-0.0033267,-0.0005911,-0.
 0164279\Quadrupole=-0.0834841,0.0667165,0.0167676,-0.2086587,-0.119714
 5,-0.1845403\PG=C01 [X(C5H12)]\\@


 I do not feel obliged to believe that the same God who
 has endowed us with sense, reason, and intellect has
 intended us to forgo their use.
                   --Galileo Galilei
 Job cpu time:       0 days  0 hours 15 minutes 40.4 seconds.
 Elapsed time:       0 days  0 hours  4 minutes 37.0 seconds.
 File lengths (MBytes):  RWF=     10 Int=      0 D2E=      0 Chk=      2 Scr=      1
 Normal termination of Gaussian 16 at Sat Sep 22 00:25:54 2018.
