 Entering Gaussian System, Link 0=g16
 Initial command:
 /Applications/g16/l1.exe "/var/folders/hc/gtglrcdn25lc_0x4jfkqf1nh0000gn/T/Gau-29328.inp" -scrdir="/var/folders/hc/gtglrcdn25lc_0x4jfkqf1nh0000gn/T/"
 Entering Link 1 = /Applications/g16/l1.exe PID=     29329.
  
 Copyright (c) 1988,1990,1992,1993,1995,1998,2003,2009,2016,
            Gaussian, Inc.  All Rights Reserved.
  
 This is part of the Gaussian(R) 16 program.  It is based on
 the Gaussian(R) 09 system (copyright 2009, Gaussian, Inc.),
 the Gaussian(R) 03 system (copyright 2003, Gaussian, Inc.),
 the Gaussian(R) 98 system (copyright 1998, Gaussian, Inc.),
 the Gaussian(R) 94 system (copyright 1995, Gaussian, Inc.),
 the Gaussian 92(TM) system (copyright 1992, Gaussian, Inc.),
 the Gaussian 90(TM) system (copyright 1990, Gaussian, Inc.),
 the Gaussian 88(TM) system (copyright 1988, Gaussian, Inc.),
 the Gaussian 86(TM) system (copyright 1986, Carnegie Mellon
 University), and the Gaussian 82(TM) system (copyright 1983,
 Carnegie Mellon University). Gaussian is a federally registered
 trademark of Gaussian, Inc.
  
 This software contains proprietary and confidential information,
 including trade secrets, belonging to Gaussian, Inc.
  
 This software is provided under written license and may be
 used, copied, transmitted, or stored only in accord with that
 written license.
  
 The following legend is applicable only to US Government
 contracts under FAR:
  
                    RESTRICTED RIGHTS LEGEND
  
 Use, reproduction and disclosure by the US Government is
 subject to restrictions as set forth in subparagraphs (a)
 and (c) of the Commercial Computer Software - Restricted
 Rights clause in FAR 52.227-19.
  
 Gaussian, Inc.
 340 Quinnipiac St., Bldg. 40, Wallingford CT 06492
  
  
 ---------------------------------------------------------------
 Warning -- This program may not be used in any manner that
 competes with the business of Gaussian, Inc. or will provide
 assistance to any competitor of Gaussian, Inc.  The licensee
 of this program is prohibited from giving any competitor of
 Gaussian, Inc. access to this program.  By using this program,
 the user acknowledges that Gaussian, Inc. is engaged in the
 business of creating and licensing software in the field of
 computational chemistry and represents and warrants to the
 licensee that it is not a competitor of Gaussian, Inc. and that
 it will not use this program in any manner prohibited above.
 ---------------------------------------------------------------
  

 Cite this work as:
 Gaussian 16, Revision A.03,
 M. J. Frisch, G. W. Trucks, H. B. Schlegel, G. E. Scuseria, 
 M. A. Robb, J. R. Cheeseman, G. Scalmani, V. Barone, 
 G. A. Petersson, H. Nakatsuji, X. Li, M. Caricato, A. V. Marenich, 
 J. Bloino, B. G. Janesko, R. Gomperts, B. Mennucci, H. P. Hratchian, 
 J. V. Ortiz, A. F. Izmaylov, J. L. Sonnenberg, D. Williams-Young, 
 F. Ding, F. Lipparini, F. Egidi, J. Goings, B. Peng, A. Petrone, 
 T. Henderson, D. Ranasinghe, V. G. Zakrzewski, J. Gao, N. Rega, 
 G. Zheng, W. Liang, M. Hada, M. Ehara, K. Toyota, R. Fukuda, 
 J. Hasegawa, M. Ishida, T. Nakajima, Y. Honda, O. Kitao, H. Nakai, 
 T. Vreven, K. Throssell, J. A. Montgomery, Jr., J. E. Peralta, 
 F. Ogliaro, M. J. Bearpark, J. J. Heyd, E. N. Brothers, K. N. Kudin, 
 V. N. Staroverov, T. A. Keith, R. Kobayashi, J. Normand, 
 K. Raghavachari, A. P. Rendell, J. C. Burant, S. S. Iyengar, 
 J. Tomasi, M. Cossi, J. M. Millam, M. Klene, C. Adamo, R. Cammi, 
 J. W. Ochterski, R. L. Martin, K. Morokuma, O. Farkas, 
 J. B. Foresman, and D. J. Fox, Gaussian, Inc., Wallingford CT, 2016.
 
 ******************************************
 Gaussian 16:  EM64M-G16RevA.03 25-Dec-2016
                22-Sep-2018 
 ******************************************
 %mem=1GB
 %nprocshared=4
 Will use up to    4 processors via shared memory.
 %chk=pentane_21.chk
 --------------------------------------------
 # opt=(maxcycles=160) M062X/6-31G(d) emp=GD3
 --------------------------------------------
 1/6=160,18=20,19=15,26=3,38=1/1,3;
 2/9=110,12=2,17=6,18=5,40=1/2;
 3/5=1,6=6,7=1,11=2,25=1,30=1,71=1,74=-55,124=31/1,2,3;
 4//1;
 5/5=2,38=5/2;
 6/7=2,8=2,9=2,10=2,28=1/1;
 7//1,2,3,16;
 1/6=160,18=20,19=15,26=3/3(2);
 2/9=110/2;
 99//99;
 2/9=110/2;
 3/5=1,6=6,7=1,11=2,25=1,30=1,71=1,74=-55,124=31/1,2,3;
 4/5=5,16=3,69=1/1;
 5/5=2,38=5/2;
 7//1,2,3,16;
 1/6=160,18=20,19=15,26=3/3(-5);
 2/9=110/2;
 6/7=2,8=2,9=2,10=2,19=2,28=1/1;
 99/9=1/99;
 ----------------------------
 Generated by prepare_file.py
 ----------------------------
 Symbolic Z-matrix:
 Charge =  0 Multiplicity = 1
 C                     0.        0.        0. 
 C                     1.171     0.975    -0.22 
 C                     1.752     1.396     1.143 
 C                     2.521     0.213     1.76 
 C                     1.523    -0.859     2.232 
 H                    -0.785     0.244    -0.653 
 H                     0.322    -0.981    -0.19 
 H                    -0.335     0.073     0.993 
 H                     2.048    -1.665     2.654 
 H                     0.828     1.825    -0.731 
 H                     1.917     0.503    -0.787 
 H                     0.97      1.677     1.786 
 H                     2.405     2.207     1.011 
 H                     3.086     0.55      2.577 
 H                     3.163    -0.201     1.039 
 H                     0.96     -1.2       1.413 
 H                     0.879    -0.446     2.952 
 

 GradGradGradGradGradGradGradGradGradGradGradGradGradGradGradGradGradGrad
 Berny optimization.
 Initialization pass.
                           ----------------------------
                           !    Initial Parameters    !
                           ! (Angstroms and Degrees)  !
 --------------------------                            --------------------------
 ! Name  Definition              Value          Derivative Info.                !
 --------------------------------------------------------------------------------
 ! R1    R(1,2)                  1.5396         estimate D2E/DX2                !
 ! R2    R(1,6)                  1.0498         estimate D2E/DX2                !
 ! R3    R(1,7)                  1.0498         estimate D2E/DX2                !
 ! R4    R(1,8)                  1.0505         estimate D2E/DX2                !
 ! R5    R(2,3)                  1.5403         estimate D2E/DX2                !
 ! R6    R(2,10)                 1.0494         estimate D2E/DX2                !
 ! R7    R(2,11)                 1.0492         estimate D2E/DX2                !
 ! R8    R(3,4)                  1.54           estimate D2E/DX2                !
 ! R9    R(3,12)                 1.0507         estimate D2E/DX2                !
 ! R10   R(3,13)                 1.0495         estimate D2E/DX2                !
 ! R11   R(4,5)                  1.5388         estimate D2E/DX2                !
 ! R12   R(4,14)                 1.0489         estimate D2E/DX2                !
 ! R13   R(4,15)                 1.0504         estimate D2E/DX2                !
 ! R14   R(5,9)                  1.0504         estimate D2E/DX2                !
 ! R15   R(5,16)                 1.0507         estimate D2E/DX2                !
 ! R16   R(5,17)                 1.0506         estimate D2E/DX2                !
 ! A1    A(2,1,6)              109.4301         estimate D2E/DX2                !
 ! A2    A(2,1,7)              109.428          estimate D2E/DX2                !
 ! A3    A(2,1,8)              109.4882         estimate D2E/DX2                !
 ! A4    A(6,1,7)              109.5086         estimate D2E/DX2                !
 ! A5    A(6,1,8)              109.472          estimate D2E/DX2                !
 ! A6    A(7,1,8)              109.5003         estimate D2E/DX2                !
 ! A7    A(1,2,3)              109.4839         estimate D2E/DX2                !
 ! A8    A(1,2,10)             109.5077         estimate D2E/DX2                !
 ! A9    A(1,2,11)             109.459          estimate D2E/DX2                !
 ! A10   A(3,2,10)             109.438          estimate D2E/DX2                !
 ! A11   A(3,2,11)             109.4492         estimate D2E/DX2                !
 ! A12   A(10,2,11)            109.4895         estimate D2E/DX2                !
 ! A13   A(2,3,4)              109.4464         estimate D2E/DX2                !
 ! A14   A(2,3,12)             109.5053         estimate D2E/DX2                !
 ! A15   A(2,3,13)             109.5475         estimate D2E/DX2                !
 ! A16   A(4,3,12)             109.3851         estimate D2E/DX2                !
 ! A17   A(4,3,13)             109.4689         estimate D2E/DX2                !
 ! A18   A(12,3,13)            109.474          estimate D2E/DX2                !
 ! A19   A(3,4,5)              109.523          estimate D2E/DX2                !
 ! A20   A(3,4,14)             109.5259         estimate D2E/DX2                !
 ! A21   A(3,4,15)             109.4483         estimate D2E/DX2                !
 ! A22   A(5,4,14)             109.5264         estimate D2E/DX2                !
 ! A23   A(5,4,15)             109.4115         estimate D2E/DX2                !
 ! A24   A(14,4,15)            109.3921         estimate D2E/DX2                !
 ! A25   A(4,5,9)              109.489          estimate D2E/DX2                !
 ! A26   A(4,5,16)             109.5427         estimate D2E/DX2                !
 ! A27   A(4,5,17)             109.5063         estimate D2E/DX2                !
 ! A28   A(9,5,16)             109.3861         estimate D2E/DX2                !
 ! A29   A(9,5,17)             109.4325         estimate D2E/DX2                !
 ! A30   A(16,5,17)            109.4706         estimate D2E/DX2                !
 ! D1    D(6,1,2,3)            137.7376         estimate D2E/DX2                !
 ! D2    D(6,1,2,10)            17.7482         estimate D2E/DX2                !
 ! D3    D(6,1,2,11)          -102.2891         estimate D2E/DX2                !
 ! D4    D(7,1,2,3)           -102.2681         estimate D2E/DX2                !
 ! D5    D(7,1,2,10)           137.7425         estimate D2E/DX2                !
 ! D6    D(7,1,2,11)            17.7052         estimate D2E/DX2                !
 ! D7    D(8,1,2,3)             17.7515         estimate D2E/DX2                !
 ! D8    D(8,1,2,10)          -102.2379         estimate D2E/DX2                !
 ! D9    D(8,1,2,11)           137.7248         estimate D2E/DX2                !
 ! D10   D(1,2,3,4)             71.9815         estimate D2E/DX2                !
 ! D11   D(1,2,3,12)           -47.9188         estimate D2E/DX2                !
 ! D12   D(1,2,3,13)          -167.9899         estimate D2E/DX2                !
 ! D13   D(10,2,3,4)          -167.9865         estimate D2E/DX2                !
 ! D14   D(10,2,3,12)           72.1133         estimate D2E/DX2                !
 ! D15   D(10,2,3,13)          -47.9578         estimate D2E/DX2                !
 ! D16   D(11,2,3,4)           -47.9979         estimate D2E/DX2                !
 ! D17   D(11,2,3,12)         -167.8981         estimate D2E/DX2                !
 ! D18   D(11,2,3,13)           72.0308         estimate D2E/DX2                !
 ! D19   D(2,3,4,5)            -71.9838         estimate D2E/DX2                !
 ! D20   D(2,3,4,14)           167.8832         estimate D2E/DX2                !
 ! D21   D(2,3,4,15)            47.9608         estimate D2E/DX2                !
 ! D22   D(12,3,4,5)            47.9901         estimate D2E/DX2                !
 ! D23   D(12,3,4,14)          -72.1429         estimate D2E/DX2                !
 ! D24   D(12,3,4,15)          167.9347         estimate D2E/DX2                !
 ! D25   D(13,3,4,5)           167.9394         estimate D2E/DX2                !
 ! D26   D(13,3,4,14)           47.8064         estimate D2E/DX2                !
 ! D27   D(13,3,4,15)          -72.1161         estimate D2E/DX2                !
 ! D28   D(3,4,5,9)           -179.9184         estimate D2E/DX2                !
 ! D29   D(3,4,5,16)            60.1312         estimate D2E/DX2                !
 ! D30   D(3,4,5,17)           -59.9334         estimate D2E/DX2                !
 ! D31   D(14,4,5,9)           -59.7857         estimate D2E/DX2                !
 ! D32   D(14,4,5,16)         -179.7362         estimate D2E/DX2                !
 ! D33   D(14,4,5,17)           60.1992         estimate D2E/DX2                !
 ! D34   D(15,4,5,9)            60.1146         estimate D2E/DX2                !
 ! D35   D(15,4,5,16)          -59.8359         estimate D2E/DX2                !
 ! D36   D(15,4,5,17)         -179.9005         estimate D2E/DX2                !
 --------------------------------------------------------------------------------
 Trust Radius=3.00D-01 FncErr=1.00D-07 GrdErr=1.00D-06 EigMax=2.50D+02 EigMin=1.00D-04
 Number of steps in this run=    102 maximum allowed number of steps=    102.
 GradGradGradGradGradGradGradGradGradGradGradGradGradGradGradGradGradGrad

                          Input orientation:                          
 ---------------------------------------------------------------------
 Center     Atomic      Atomic             Coordinates (Angstroms)
 Number     Number       Type             X           Y           Z
 ---------------------------------------------------------------------
      1          6           0        0.000000    0.000000    0.000000
      2          6           0        1.171000    0.975000   -0.220000
      3          6           0        1.752000    1.396000    1.143000
      4          6           0        2.521000    0.213000    1.760000
      5          6           0        1.523000   -0.859000    2.232000
      6          1           0       -0.785000    0.244000   -0.653000
      7          1           0        0.322000   -0.981000   -0.190000
      8          1           0       -0.335000    0.073000    0.993000
      9          1           0        2.048000   -1.665000    2.654000
     10          1           0        0.828000    1.825000   -0.731000
     11          1           0        1.917000    0.503000   -0.787000
     12          1           0        0.970000    1.677000    1.786000
     13          1           0        2.405000    2.207000    1.011000
     14          1           0        3.086000    0.550000    2.577000
     15          1           0        3.163000   -0.201000    1.039000
     16          1           0        0.960000   -1.200000    1.413000
     17          1           0        0.879000   -0.446000    2.952000
 ---------------------------------------------------------------------
                    Distance matrix (angstroms):
                    1          2          3          4          5
     1  C    0.000000
     2  C    1.539567   0.000000
     3  C    2.514909   1.540315   0.000000
     4  C    3.081949   2.514666   1.539980   0.000000
     5  C    2.835354   3.082169   2.514635   1.538822   0.000000
     6  H    1.049843   2.132554   3.314979   4.093063   3.855736
     7  H    1.049831   2.132519   3.077648   3.172339   2.706172
     8  H    1.050525   2.133778   2.475560   2.960511   2.419899
     9  H    3.743026   3.999826   3.426435   2.133038   1.050402
    10  H    2.133207   1.049414   2.133001   3.416120   4.057863
    11  H    2.132432   1.049185   2.132973   2.633652   3.335362
    12  H    2.634962   2.134770   1.050683   2.132973   2.633633
    13  H    3.417162   2.134465   1.049549   2.133188   3.416010
    14  H    4.057934   3.416293   2.133454   1.048944   2.132434
    15  H    3.335340   2.633652   2.133576   1.050429   2.132091
    16  H    2.087623   2.727973   2.727523   2.133940   1.050719
    17  H    3.112212   3.487992   2.725358   2.133380   1.050574
                    6          7          8          9         10
     6  H    0.000000
     7  H    1.714772   0.000000
     8  H    1.714951   1.715242   0.000000
     9  H    4.754621   3.396361   3.385004   0.000000
    10  H    2.259959   2.902129   2.719237   5.012656   0.000000
    11  H    2.717690   2.258913   2.902551   4.069136   1.713692
    12  H    3.328999   3.374825   2.214653   3.617246   2.525343
    13  H    4.098581   3.993073   3.473022   4.221289   2.380634
    14  H    5.050859   4.199994   3.799977   2.447366   4.203219
    15  H    4.318286   3.192197   3.509016   2.448417   3.562275
    16  H    3.065700   1.739142   1.863855   1.714657   3.710092
    17  H    4.030015   3.235527   2.362380   1.715029   4.327185
                   11         12         13         14         15
    11  H    0.000000
    12  H    2.982518   0.000000
    13  H    2.524790   1.714862   0.000000
    14  H    3.561638   2.524533   2.379447   0.000000
    15  H    2.320002   2.982305   2.524641   1.713293   0.000000
    16  H    2.942118   2.901096   3.722537   2.989527   2.447670
    17  H    3.994767   2.423833   3.624164   2.450202   2.989356
                   16         17
    16  H    0.000000
    17  H    1.715692   0.000000
 Stoichiometry    C5H12
 Framework group  C1[X(C5H12)]
 Deg. of freedom    45
 Full point group                 C1      NOp   1
 Largest Abelian subgroup         C1      NOp   1
 Largest concise Abelian subgroup C1      NOp   1
                         Standard orientation:                         
 ---------------------------------------------------------------------
 Center     Atomic      Atomic             Coordinates (Angstroms)
 Number     Number       Type             X           Y           Z
 ---------------------------------------------------------------------
      1          6           0        1.417595    0.958470    0.064633
      2          6           0        1.257567   -0.533456   -0.280060
      3          6           0        0.000171   -1.089253    0.414647
      4          6           0       -1.257099   -0.533491   -0.279572
      5          6           0       -1.417760    0.957751    0.064458
      6          1           0        2.427156    1.163939    0.266470
      7          1           0        1.096900    1.540921   -0.747802
      8          1           0        0.837852    1.186910    0.910397
      9          1           0       -2.276214    1.335924   -0.408179
     10          1           0        2.101699   -1.062019    0.050596
     11          1           0        1.160295   -0.643691   -1.318893
     12          1           0       -0.000956   -0.797361    1.423969
     13          1           0       -0.000704   -2.137015    0.353419
     14          1           0       -2.101520   -1.062027    0.048887
     15          1           0       -1.159707   -0.643291   -1.319697
     16          1           0       -0.574050    1.488147   -0.268477
     17          1           0       -1.513593    1.069440    1.104673
 ---------------------------------------------------------------------
 Rotational constants (GHZ):           6.7882027           4.0053277           2.8830034
 Standard basis: 6-31G(d) (6D, 7F)
 There are    99 symmetry adapted cartesian basis functions of A   symmetry.
 There are    99 symmetry adapted basis functions of A   symmetry.
    99 basis functions,   188 primitive gaussians,    99 cartesian basis functions
    21 alpha electrons       21 beta electrons
       nuclear repulsion energy       198.0895746436 Hartrees.
 NAtoms=   17 NActive=   17 NUniq=   17 SFac= 1.00D+00 NAtFMM=   60 NAOKFM=F Big=F
 Integral buffers will be    131072 words long.
 Raffenetti 2 integral format.
 Two-electron integral symmetry is turned on.
 Nuclear repulsion after empirical dispersion term =      198.0893287609 Hartrees.
 One-electron integrals computed using PRISM.
 NBasis=    99 RedAO= T EigKep=  4.79D-03  NBF=    99
 NBsUse=    99 1.00D-06 EigRej= -1.00D+00 NBFU=    99
 ExpMin= 1.61D-01 ExpMax= 3.05D+03 ExpMxC= 4.57D+02 IAcc=3 IRadAn=         5 AccDes= 0.00D+00
 Harris functional with IExCor= 1009 and IRadAn=       5 diagonalized for initial guess.
 HarFok:  IExCor= 1009 AccDes= 0.00D+00 IRadAn=         5 IDoV= 1 UseB2=F ITyADJ=14
 ICtDFT=  3500011 ScaDFX=  1.000000  1.000000  1.000000  1.000000
 FoFCou: FMM=F IPFlag=           0 FMFlag=      100000 FMFlg1=           0
         NFxFlg=           0 DoJE=T BraDBF=F KetDBF=T FulRan=T
         wScrn=  0.000000 ICntrl=       500 IOpCl=  0 I1Cent=   200000004 NGrid=           0
         NMat0=    1 NMatS0=      1 NMatT0=    0 NMatD0=    1 NMtDS0=    0 NMtDT0=    0
 Petite list used in FoFCou.
 Keep R1 ints in memory in canonical form, NReq=15944043.
 Requested convergence on RMS density matrix=1.00D-08 within 128 cycles.
 Requested convergence on MAX density matrix=1.00D-06.
 Requested convergence on             energy=1.00D-06.
 No special actions if energy rises.
 Integral accuracy reduced to 1.0D-05 until final iterations.
 Initial convergence to 1.0D-05 achieved.  Increase integral accuracy.
 SCF Done:  E(RM062X) =  -197.613150156     A.U. after   12 cycles
            NFock= 12  Conv=0.33D-08     -V/T= 2.0048

 **********************************************************************

            Population analysis using the SCF density.

 **********************************************************************

 Orbital symmetries:
       Occupied  (A) (A) (A) (A) (A) (A) (A) (A) (A) (A) (A) (A)
                 (A) (A) (A) (A) (A) (A) (A) (A) (A)
       Virtual   (A) (A) (A) (A) (A) (A) (A) (A) (A) (A) (A) (A)
                 (A) (A) (A) (A) (A) (A) (A) (A) (A) (A) (A) (A)
                 (A) (A) (A) (A) (A) (A) (A) (A) (A) (A) (A) (A)
                 (A) (A) (A) (A) (A) (A) (A) (A) (A) (A) (A) (A)
                 (A) (A) (A) (A) (A) (A) (A) (A) (A) (A) (A) (A)
                 (A) (A) (A) (A) (A) (A) (A) (A) (A) (A) (A) (A)
                 (A) (A) (A) (A) (A) (A)
 The electronic state is 1-A.
 Alpha  occ. eigenvalues --  -10.52184 -10.52091 -10.51936 -10.51088 -10.50581
 Alpha  occ. eigenvalues --   -0.90853  -0.83609  -0.78047  -0.69081  -0.65787
 Alpha  occ. eigenvalues --   -0.55296  -0.52483  -0.50403  -0.46419  -0.45728
 Alpha  occ. eigenvalues --   -0.44968  -0.40575  -0.40270  -0.39238  -0.36799
 Alpha  occ. eigenvalues --   -0.35257
 Alpha virt. eigenvalues --    0.14126   0.16764   0.17855   0.19517   0.19784
 Alpha virt. eigenvalues --    0.21218   0.23624   0.24583   0.25085   0.25896
 Alpha virt. eigenvalues --    0.27500   0.28047   0.30311   0.31639   0.32951
 Alpha virt. eigenvalues --    0.36281   0.54741   0.57694   0.58738   0.59275
 Alpha virt. eigenvalues --    0.59586   0.64782   0.65907   0.71176   0.73387
 Alpha virt. eigenvalues --    0.76172   0.77101   0.80302   0.89625   0.94266
 Alpha virt. eigenvalues --    0.95636   0.97546   0.98365   0.99586   1.01000
 Alpha virt. eigenvalues --    1.01842   1.03370   1.04167   1.08044   1.08790
 Alpha virt. eigenvalues --    1.09505   1.10800   1.11955   1.14815   1.33509
 Alpha virt. eigenvalues --    1.43141   1.52073   1.56041   1.62723   1.66140
 Alpha virt. eigenvalues --    1.74560   1.81341   1.88126   1.95145   1.96601
 Alpha virt. eigenvalues --    1.98953   2.04812   2.10838   2.12761   2.16128
 Alpha virt. eigenvalues --    2.23571   2.29166   2.36072   2.41348   2.41860
 Alpha virt. eigenvalues --    2.45804   2.49182   2.51411   2.55675   2.63262
 Alpha virt. eigenvalues --    2.65514   2.70610   2.77732   4.18717   4.30234
 Alpha virt. eigenvalues --    4.36912   4.55777   4.57968
          Condensed to atoms (all electrons):
               1          2          3          4          5          6
     1  C    5.147825   0.348906  -0.051012  -0.002813  -0.017877   0.381368
     2  C    0.348906   5.029067   0.381332  -0.051916  -0.002792  -0.029934
     3  C   -0.051012   0.381332   5.039770   0.380492  -0.057544   0.003933
     4  C   -0.002813  -0.051916   0.380492   5.009347   0.375593  -0.000029
     5  C   -0.017877  -0.002792  -0.057544   0.375593   5.122872   0.001482
     6  H    0.381368  -0.029934   0.003933  -0.000029   0.001482   0.542972
     7  H    0.394502  -0.033508   0.001454   0.002135  -0.014150  -0.027066
     8  H    0.401675  -0.045427  -0.007573  -0.003598  -0.005222  -0.028848
     9  H    0.000651  -0.000134   0.005515  -0.033313   0.384145  -0.000032
    10  H   -0.038222   0.396946  -0.036015   0.005214  -0.000236  -0.009987
    11  H   -0.041579   0.394588  -0.040337  -0.008924   0.000009   0.002289
    12  H   -0.011792  -0.040845   0.389461  -0.041681  -0.007818   0.000285
    13  H    0.006110  -0.037919   0.389031  -0.036693   0.005600  -0.000174
    14  H   -0.000247   0.005548  -0.037707   0.392935  -0.037995   0.000009
    15  H   -0.001055  -0.007581  -0.042237   0.392085  -0.040154  -0.000029
    16  H   -0.007193  -0.000432  -0.005429  -0.037446   0.396498   0.001508
    17  H   -0.002316  -0.000081  -0.005414  -0.037438   0.391177  -0.000069
               7          8          9         10         11         12
     1  C    0.394502   0.401675   0.000651  -0.038222  -0.041579  -0.011792
     2  C   -0.033508  -0.045427  -0.000134   0.396946   0.394588  -0.040845
     3  C    0.001454  -0.007573   0.005515  -0.036015  -0.040337   0.389461
     4  C    0.002135  -0.003598  -0.033313   0.005214  -0.008924  -0.041681
     5  C   -0.014150  -0.005222   0.384145  -0.000236   0.000009  -0.007818
     6  H   -0.027066  -0.028848  -0.000032  -0.009987   0.002289   0.000285
     7  H    0.538359  -0.034989   0.000402   0.004221  -0.009134   0.000265
     8  H   -0.034989   0.548503   0.000545   0.001540   0.005071   0.006927
     9  H    0.000402   0.000545   0.546399   0.000008  -0.000019   0.000075
    10  H    0.004221   0.001540   0.000008   0.553758  -0.032340  -0.001245
    11  H   -0.009134   0.005071  -0.000019  -0.032340   0.562075   0.005553
    12  H    0.000265   0.006927   0.000075  -0.001245   0.005553   0.573931
    13  H   -0.000229   0.000370  -0.000161  -0.004453  -0.001210  -0.032903
    14  H   -0.000048  -0.000178  -0.004139  -0.000216   0.000149  -0.001623
    15  H    0.000385   0.000443  -0.002740   0.000156   0.006393   0.005788
    16  H    0.003064  -0.008900  -0.027198   0.000008  -0.000021  -0.000397
    17  H    0.000362   0.002346  -0.027865  -0.000009   0.000054   0.005434
              13         14         15         16         17
     1  C    0.006110  -0.000247  -0.001055  -0.007193  -0.002316
     2  C   -0.037919   0.005548  -0.007581  -0.000432  -0.000081
     3  C    0.389031  -0.037707  -0.042237  -0.005429  -0.005414
     4  C   -0.036693   0.392935   0.392085  -0.037446  -0.037438
     5  C    0.005600  -0.037995  -0.040154   0.396498   0.391177
     6  H   -0.000174   0.000009  -0.000029   0.001508  -0.000069
     7  H   -0.000229  -0.000048   0.000385   0.003064   0.000362
     8  H    0.000370  -0.000178   0.000443  -0.008900   0.002346
     9  H   -0.000161  -0.004139  -0.002740  -0.027198  -0.027865
    10  H   -0.004453  -0.000216   0.000156   0.000008  -0.000009
    11  H   -0.001210   0.000149   0.006393  -0.000021   0.000054
    12  H   -0.032903  -0.001623   0.005788  -0.000397   0.005434
    13  H    0.565373  -0.004683  -0.001452  -0.000151   0.000039
    14  H   -0.004683   0.563725  -0.033947   0.005560  -0.004489
    15  H   -0.001452  -0.033947   0.570105  -0.004513   0.005422
    16  H   -0.000151   0.005560  -0.004513   0.551918  -0.032909
    17  H    0.000039  -0.004489   0.005422  -0.032909   0.547887
 Mulliken charges:
               1
     1  C   -0.506930
     2  C   -0.305820
     3  C   -0.307718
     4  C   -0.303950
     5  C   -0.493589
     6  H    0.162322
     7  H    0.173976
     8  H    0.167317
     9  H    0.157860
    10  H    0.160874
    11  H    0.157384
    12  H    0.150586
    13  H    0.153507
    14  H    0.157345
    15  H    0.152930
    16  H    0.166035
    17  H    0.157870
 Sum of Mulliken charges =  -0.00000
 Mulliken charges with hydrogens summed into heavy atoms:
               1
     1  C   -0.003314
     2  C    0.012438
     3  C   -0.003625
     4  C    0.006325
     5  C   -0.011824
 Electronic spatial extent (au):  <R**2>=            509.1056
 Charge=             -0.0000 electrons
 Dipole moment (field-independent basis, Debye):
    X=              0.1121    Y=             -0.0943    Z=             -0.0593  Tot=              0.1580
 Quadrupole moment (field-independent basis, Debye-Ang):
   XX=            -34.7670   YY=            -35.2219   ZZ=            -34.0396
   XY=              0.0756   XZ=             -0.0215   YZ=             -0.1727
 Traceless Quadrupole moment (field-independent basis, Debye-Ang):
   XX=             -0.0908   YY=             -0.5457   ZZ=              0.6366
   XY=              0.0756   XZ=             -0.0215   YZ=             -0.1727
 Octapole moment (field-independent basis, Debye-Ang**2):
  XXX=              1.0895  YYY=             -2.0936  ZZZ=             -0.3664  XYY=              0.1051
  XXY=             -0.9829  XXZ=              0.5962  XZZ=             -0.3632  YZZ=              0.5257
  YYZ=             -0.5988  XYZ=             -0.0121
 Hexadecapole moment (field-independent basis, Debye-Ang**3):
 XXXX=           -371.9064 YYYY=           -232.9776 ZZZZ=            -80.7046 XXXY=             -0.0003
 XXXZ=              2.7805 YYYX=              0.1966 YYYZ=             -1.4270 ZZZX=             -1.1048
 ZZZY=              0.8935 XXYY=           -102.9971 XXZZ=            -77.9372 YYZZ=            -52.9022
 XXYZ=             -1.6806 YYXZ=             -0.0300 ZZXY=             -0.3303
 N-N= 1.980893287609D+02 E-N=-8.528493210334D+02  KE= 1.966734523519D+02
 Calling FoFJK, ICntrl=      2127 FMM=F ISym2X=0 I1Cent= 0 IOpClX= 0 NMat=1 NMatS=1 NMatT=0.
 ***** Axes restored to original set *****
 -------------------------------------------------------------------
 Center     Atomic                   Forces (Hartrees/Bohr)
 Number     Number              X              Y              Z
 -------------------------------------------------------------------
      1        6           0.017940563    0.027362080   -0.019775647
      2        6          -0.017915004   -0.007233104    0.045924135
      3        6           0.017491796   -0.040731345   -0.026732191
      4        6          -0.051035791    0.006309282    0.000953074
      5        6           0.034104883    0.016248734   -0.009828304
      6        1          -0.026497086    0.003828675   -0.020491313
      7        1           0.001659661   -0.029728125   -0.008100588
      8        1          -0.016685962    0.001974608    0.023759749
      9        1           0.014159167   -0.026243576    0.015539243
     10        1          -0.009060085    0.026765869   -0.018124656
     11        1           0.025042488   -0.010924561   -0.020698588
     12        1          -0.024075382    0.012435744    0.020526641
     13        1           0.020407565    0.028203158   -0.002799018
     14        1           0.020749977    0.009327598    0.026390794
     15        1           0.023131500   -0.011609398   -0.021815780
     16        1          -0.007815808   -0.016725515   -0.007803138
     17        1          -0.021602479    0.010739877    0.023075586
 -------------------------------------------------------------------
 Cartesian Forces:  Max     0.051035791 RMS     0.021425763

 GradGradGradGradGradGradGradGradGradGradGradGradGradGradGradGradGradGrad
 Berny optimization.
 FormGI is forming the generalized inverse of G from B-inverse, IUseBI=4.
 Internal  Forces:  Max     0.074088480 RMS     0.020806179
 Search for a local minimum.
 Step number   1 out of a maximum of  102
 All quantities printed in internal units (Hartrees-Bohrs-Radians)
 Mixed Optimization -- RFO/linear search
 Second derivative matrix not updated -- first step.
 ITU=  0
     Eigenvalues ---    0.00233   0.00237   0.00243   0.00252   0.03838
     Eigenvalues ---    0.03840   0.03841   0.04895   0.04897   0.04898
     Eigenvalues ---    0.05719   0.05725   0.05726   0.05730   0.07650
     Eigenvalues ---    0.07657   0.07670   0.11697   0.11702   0.11712
     Eigenvalues ---    0.16000   0.16000   0.16000   0.16000   0.16000
     Eigenvalues ---    0.16000   0.21946   0.21947   0.21949   0.28491
     Eigenvalues ---    0.28521   0.28557   0.28624   0.39777   0.39782
     Eigenvalues ---    0.39797   0.39804   0.39817   0.39821   0.39898
     Eigenvalues ---    0.39900   0.39939   0.39958   0.39990   0.40023
 RFO step:  Lambda=-1.05905713D-01 EMin= 2.32654356D-03
 Linear search not attempted -- first point.
 Maximum step size (   0.300) exceeded in Quadratic search.
    -- Step size scaled by   0.594
 Iteration  1 RMS(Cart)=  0.22808361 RMS(Int)=  0.00961644
 Iteration  2 RMS(Cart)=  0.02600114 RMS(Int)=  0.00093534
 Iteration  3 RMS(Cart)=  0.00042131 RMS(Int)=  0.00092259
 Iteration  4 RMS(Cart)=  0.00000050 RMS(Int)=  0.00092259
 Variable       Old X    -DE/DX   Delta X   Delta X   Delta X     New X
                                 (Linear)    (Quad)   (Total)
    R1        2.90936   0.01224   0.00000   0.01856   0.01856   2.92792
    R2        1.98392   0.03345   0.00000   0.03933   0.03933   2.02324
    R3        1.98389   0.02975   0.00000   0.03498   0.03498   2.01888
    R4        1.98520   0.02792   0.00000   0.03288   0.03288   2.01809
    R5        2.91077   0.02182   0.00000   0.03315   0.03315   2.94392
    R6        1.98311   0.03347   0.00000   0.03930   0.03930   2.02241
    R7        1.98267   0.03391   0.00000   0.03979   0.03979   2.02247
    R8        2.91014   0.02564   0.00000   0.03892   0.03892   2.94906
    R9        1.98550   0.03381   0.00000   0.03984   0.03984   2.02534
   R10        1.98336   0.03484   0.00000   0.04093   0.04093   2.02429
   R11        2.90795   0.00535   0.00000   0.00810   0.00810   2.91605
   R12        1.98222   0.03473   0.00000   0.04073   0.04073   2.02295
   R13        1.98502   0.03369   0.00000   0.03967   0.03967   2.02469
   R14        1.98497   0.03346   0.00000   0.03940   0.03940   2.02437
   R15        1.98557   0.01570   0.00000   0.01850   0.01850   2.00407
   R16        1.98530   0.03328   0.00000   0.03921   0.03921   2.02450
    A1        1.90992   0.00131   0.00000   0.00070   0.00072   1.91063
    A2        1.90988   0.00839   0.00000   0.01975   0.01959   1.92947
    A3        1.91093   0.00685   0.00000   0.01647   0.01630   1.92723
    A4        1.91129  -0.00695   0.00000  -0.01788  -0.01787   1.89342
    A5        1.91065  -0.00591   0.00000  -0.01525  -0.01524   1.89541
    A6        1.91114  -0.00367   0.00000  -0.00377  -0.00411   1.90704
    A7        1.91085   0.06016   0.00000   0.11476   0.11466   2.02551
    A8        1.91127  -0.02482   0.00000  -0.05402  -0.05317   1.85810
    A9        1.91042  -0.00778   0.00000   0.00184   0.00091   1.91133
   A10        1.91005  -0.01628   0.00000  -0.03196  -0.03071   1.87935
   A11        1.91025  -0.01882   0.00000  -0.02826  -0.03051   1.87974
   A12        1.91095   0.00754   0.00000  -0.00233  -0.00350   1.90745
   A13        1.91020   0.07409   0.00000   0.14088   0.14054   2.05074
   A14        1.91123  -0.01686   0.00000  -0.01559  -0.01901   1.89222
   A15        1.91196  -0.02533   0.00000  -0.05543  -0.05312   1.85884
   A16        1.90913  -0.01317   0.00000  -0.00546  -0.00833   1.90080
   A17        1.91059  -0.02878   0.00000  -0.06435  -0.06224   1.84835
   A18        1.91068   0.01008   0.00000   0.00003  -0.00168   1.90900
   A19        1.91154   0.06778   0.00000   0.12890   0.12892   2.04046
   A20        1.91159  -0.02090   0.00000  -0.04170  -0.04039   1.87119
   A21        1.91023  -0.01758   0.00000  -0.02270  -0.02466   1.88558
   A22        1.91160  -0.02478   0.00000  -0.05203  -0.05101   1.86058
   A23        1.90959  -0.01373   0.00000  -0.01239  -0.01391   1.89569
   A24        1.90925   0.00915   0.00000  -0.00020  -0.00179   1.90746
   A25        1.91094   0.00018   0.00000  -0.00151  -0.00151   1.90944
   A26        1.91188   0.01315   0.00000   0.03060   0.03047   1.94235
   A27        1.91125   0.00167   0.00000   0.00443   0.00430   1.91554
   A28        1.90915  -0.00789   0.00000  -0.01898  -0.01899   1.89016
   A29        1.90996  -0.00312   0.00000  -0.00942  -0.00941   1.90054
   A30        1.91062  -0.00403   0.00000  -0.00517  -0.00542   1.90520
    D1        2.40397  -0.00168   0.00000  -0.00903  -0.00999   2.39398
    D2        0.30976  -0.00342   0.00000  -0.00714  -0.00663   0.30313
    D3       -1.78528   0.00733   0.00000   0.02771   0.02817  -1.75711
    D4       -1.78492  -0.00426   0.00000  -0.01842  -0.01947  -1.80439
    D5        2.40406  -0.00600   0.00000  -0.01652  -0.01611   2.38795
    D6        0.30901   0.00475   0.00000   0.01833   0.01870   0.32771
    D7        0.30982   0.00056   0.00000  -0.00086  -0.00173   0.30809
    D8       -1.78439  -0.00118   0.00000   0.00104   0.00163  -1.78276
    D9        2.40375   0.00957   0.00000   0.03588   0.03644   2.44019
   D10        1.25631   0.02015   0.00000   0.08665   0.08714   1.34345
   D11       -0.83634   0.00126   0.00000   0.01669   0.01658  -0.81976
   D12       -2.93198   0.01485   0.00000   0.06033   0.05961  -2.87237
   D13       -2.93192   0.01661   0.00000   0.07115   0.07149  -2.86043
   D14        1.25861  -0.00228   0.00000   0.00120   0.00093   1.25955
   D15       -0.83702   0.01131   0.00000   0.04483   0.04396  -0.79306
   D16       -0.83772   0.00439   0.00000   0.03149   0.03247  -0.80525
   D17       -2.93037  -0.01450   0.00000  -0.03847  -0.03809  -2.96846
   D18        1.25717  -0.00091   0.00000   0.00517   0.00494   1.26211
   D19       -1.25635  -0.01516   0.00000  -0.06699  -0.06831  -1.32466
   D20        2.93012  -0.01363   0.00000  -0.05686  -0.05756   2.87255
   D21        0.83707  -0.00129   0.00000  -0.01722  -0.01846   0.81861
   D22        0.83759   0.00135   0.00000  -0.00349  -0.00336   0.83422
   D23       -1.25913   0.00288   0.00000   0.00664   0.00738  -1.25175
   D24        2.93101   0.01522   0.00000   0.04628   0.04649   2.97750
   D25        2.93109  -0.01191   0.00000  -0.04603  -0.04553   2.88557
   D26        0.83438  -0.01038   0.00000  -0.03589  -0.03478   0.79960
   D27       -1.25866   0.00196   0.00000   0.00375   0.00432  -1.25434
   D28       -3.14017   0.00594   0.00000   0.02810   0.02880  -3.11137
   D29        1.04949   0.00743   0.00000   0.03353   0.03430   1.08378
   D30       -1.04604   0.00326   0.00000   0.01835   0.01897  -1.02706
   D31       -1.04346   0.00678   0.00000   0.02428   0.02372  -1.01974
   D32       -3.13699   0.00827   0.00000   0.02971   0.02921  -3.10777
   D33        1.05067   0.00410   0.00000   0.01453   0.01389   1.06457
   D34        1.04920  -0.00555   0.00000  -0.01530  -0.01543   1.03377
   D35       -1.04433  -0.00405   0.00000  -0.00987  -0.00994  -1.05427
   D36       -3.13986  -0.00823   0.00000  -0.02506  -0.02526   3.11807
         Item               Value     Threshold  Converged?
 Maximum Force            0.074088     0.000450     NO 
 RMS     Force            0.020806     0.000300     NO 
 Maximum Displacement     0.664806     0.001800     NO 
 RMS     Displacement     0.249153     0.001200     NO 
 Predicted change in Energy=-5.120776D-02
 GradGradGradGradGradGradGradGradGradGradGradGradGradGradGradGradGradGrad

                          Input orientation:                          
 ---------------------------------------------------------------------
 Center     Atomic      Atomic             Coordinates (Angstroms)
 Number     Number       Type             X           Y           Z
 ---------------------------------------------------------------------
      1          6           0       -0.177399    0.124556   -0.259251
      2          6           0        1.108547    0.988767   -0.268664
      3          6           0        1.725988    1.311890    1.124634
      4          6           0        2.534562    0.181336    1.834178
      5          6           0        1.720326   -0.955513    2.486690
      6          1           0       -0.881861    0.525342   -0.958824
      7          1           0        0.044908   -0.881654   -0.541172
      8          1           0       -0.621849    0.128404    0.711788
      9          1           0        2.388859   -1.644836    2.961532
     10          1           0        0.846375    1.917543   -0.731261
     11          1           0        1.861614    0.502681   -0.853498
     12          1           0        0.939775    1.637819    1.776034
     13          1           0        2.417358    2.115771    0.972075
     14          1           0        3.100714    0.640888    2.617919
     15          1           0        3.205631   -0.246728    1.116980
     16          1           0        1.152654   -1.485896    1.764800
     17          1           0        1.058799   -0.549372    3.225039
 ---------------------------------------------------------------------
                    Distance matrix (angstroms):
                    1          2          3          4          5
     1  C    0.000000
     2  C    1.549389   0.000000
     3  C    2.635864   1.557857   0.000000
     4  C    3.426426   2.665972   1.560577   0.000000
     5  C    3.508289   3.427313   2.645061   1.543106   0.000000
     6  H    1.070654   2.157038   3.429334   4.426189   4.564633
     7  H    1.068343   2.168886   3.226852   3.601473   3.461275
     8  H    1.067927   2.166976   2.661469   3.350446   3.132241
     9  H    4.482172   4.359958   3.543420   2.151060   1.071251
    10  H    2.117949   1.070212   2.141233   3.527870   4.401528
    11  H    2.157240   1.070243   2.141546   2.789216   3.647348
    12  H    2.771358   2.151870   1.071766   2.160571   2.799939
    13  H    3.494834   2.126630   1.071210   2.121085   3.494667
    14  H    4.392121   3.524502   2.137760   1.070499   2.114518
    15  H    3.671069   2.800753   2.149114   1.071422   2.141171
    16  H    2.908501   3.203261   2.926796   2.166598   1.060511
    17  H    3.758010   3.817632   2.884639   2.155529   1.071321
                    6          7          8          9         10
     6  H    0.000000
     7  H    1.735791   0.000000
     8  H    1.736696   1.742036   0.000000
     9  H    5.547655   4.283164   4.155730   0.000000
    10  H    2.230876   2.917873   2.727470   5.357847   0.000000
    11  H    2.745590   2.305288   2.959357   4.409566   1.745705
    12  H    3.469210   3.538075   2.418600   3.779030   2.524579
    13  H    4.140372   4.111325   3.640626   4.254517   2.325647
    14  H    5.354190   4.651445   4.213484   2.418541   4.234254
    15  H    4.648940   3.625295   3.867105   2.454424   3.696776
    16  H    3.949995   2.628634   2.619859   1.727898   4.231729
    17  H    4.735598   3.914426   3.098449   1.743140   4.667238
                   11         12         13         14         15
    11  H    0.000000
    12  H    3.008781   0.000000
    13  H    2.498725   1.748725   0.000000
    14  H    3.688524   2.524341   2.313236   0.000000
    15  H    2.500155   3.019929   2.494749   1.746909   0.000000
    16  H    3.363413   3.130981   3.898705   3.007651   2.483933
    17  H    4.287866   2.626325   3.744932   2.440232   3.023970
                   16         17
    16  H    0.000000
    17  H    1.737293   0.000000
 Stoichiometry    C5H12
 Framework group  C1[X(C5H12)]
 Deg. of freedom    45
 Full point group                 C1      NOp   1
 Largest Abelian subgroup         C1      NOp   1
 Largest concise Abelian subgroup C1      NOp   1
                         Standard orientation:                         
 ---------------------------------------------------------------------
 Center     Atomic      Atomic             Coordinates (Angstroms)
 Number     Number       Type             X           Y           Z
 ---------------------------------------------------------------------
      1          6           0        1.752740    0.931967    0.058487
      2          6           0        1.332658   -0.523932   -0.264774
      3          6           0        0.006200   -1.014421    0.388563
      4          6           0       -1.333246   -0.525610   -0.245746
      5          6           0       -1.755535    0.929075    0.048771
      6          1           0        2.804171    0.964117    0.257884
      7          1           0        1.545136    1.574748   -0.769215
      8          1           0        1.231624    1.287573    0.920143
      9          1           0       -2.699916    1.126673   -0.416717
     10          1           0        2.122022   -1.153296    0.090416
     11          1           0        1.236437   -0.641342   -1.324197
     12          1           0        0.018877   -0.743102    1.425341
     13          1           0        0.000236   -2.081997    0.300595
     14          1           0       -2.111991   -1.153372    0.135620
     15          1           0       -1.263632   -0.653279   -1.307254
     16          1           0       -1.046244    1.620218   -0.330585
     17          1           0       -1.853615    1.070591    1.106165
 ---------------------------------------------------------------------
 Rotational constants (GHZ):           7.1691617           3.0706539           2.3973875
 Standard basis: 6-31G(d) (6D, 7F)
 There are    99 symmetry adapted cartesian basis functions of A   symmetry.
 There are    99 symmetry adapted basis functions of A   symmetry.
    99 basis functions,   188 primitive gaussians,    99 cartesian basis functions
    21 alpha electrons       21 beta electrons
       nuclear repulsion energy       189.4062638453 Hartrees.
 NAtoms=   17 NActive=   17 NUniq=   17 SFac= 1.00D+00 NAtFMM=   60 NAOKFM=F Big=F
 Integral buffers will be    131072 words long.
 Raffenetti 2 integral format.
 Two-electron integral symmetry is turned on.
 Nuclear repulsion after empirical dispersion term =      189.4059452553 Hartrees.
 One-electron integrals computed using PRISM.
 NBasis=    99 RedAO= T EigKep=  5.13D-03  NBF=    99
 NBsUse=    99 1.00D-06 EigRej= -1.00D+00 NBFU=    99
 Initial guess from the checkpoint file:  "pentane_21.chk"
 B after Tr=    -0.000000   -0.000000    0.000000
         Rot=    0.999982    0.005753   -0.001593   -0.000735 Ang=   0.69 deg.
 ExpMin= 1.61D-01 ExpMax= 3.05D+03 ExpMxC= 4.57D+02 IAcc=2 IRadAn=         4 AccDes= 0.00D+00
 Harris functional with IExCor= 1009 and IRadAn=       4 diagonalized for initial guess.
 HarFok:  IExCor= 1009 AccDes= 0.00D+00 IRadAn=         4 IDoV= 1 UseB2=F ITyADJ=14
 ICtDFT=  3500011 ScaDFX=  1.000000  1.000000  1.000000  1.000000
 FoFCou: FMM=F IPFlag=           0 FMFlag=      100000 FMFlg1=           0
         NFxFlg=           0 DoJE=T BraDBF=F KetDBF=T FulRan=T
         wScrn=  0.000000 ICntrl=       500 IOpCl=  0 I1Cent=   200000004 NGrid=           0
         NMat0=    1 NMatS0=      1 NMatT0=    0 NMatD0=    1 NMtDS0=    0 NMtDT0=    0
 Petite list used in FoFCou.
 Keep R1 ints in memory in canonical form, NReq=15944043.
 Requested convergence on RMS density matrix=1.00D-08 within 128 cycles.
 Requested convergence on MAX density matrix=1.00D-06.
 Requested convergence on             energy=1.00D-06.
 No special actions if energy rises.
 Integral accuracy reduced to 1.0D-05 until final iterations.
 Initial convergence to 1.0D-05 achieved.  Increase integral accuracy.
 SCF Done:  E(RM062X) =  -197.635273646     A.U. after   12 cycles
            NFock= 12  Conv=0.49D-08     -V/T= 2.0077
 Calling FoFJK, ICntrl=      2127 FMM=F ISym2X=0 I1Cent= 0 IOpClX= 0 NMat=1 NMatS=1 NMatT=0.
 ***** Axes restored to original set *****
 -------------------------------------------------------------------
 Center     Atomic                   Forces (Hartrees/Bohr)
 Number     Number              X              Y              Z
 -------------------------------------------------------------------
      1        6           0.023263295    0.012837596   -0.000186912
      2        6          -0.009015014   -0.010017801    0.029139882
      3        6           0.002169698   -0.030817642   -0.011957485
      4        6          -0.031626687    0.000750562   -0.005474410
      5        6           0.014463904    0.023820376   -0.009368481
      6        1          -0.011985396    0.003113692   -0.010154866
      7        1           0.000731808   -0.017968394   -0.002369374
      8        1          -0.009736128   -0.001236928    0.016443101
      9        1           0.008753255   -0.010698104    0.008152239
     10        1           0.001918287    0.015864943   -0.008158559
     11        1           0.012101386   -0.004502944   -0.013447113
     12        1          -0.011413457    0.009040620    0.011618758
     13        1           0.008518722    0.015595079    0.000051369
     14        1           0.013164586    0.007771314    0.009848068
     15        1           0.014393457   -0.005375632   -0.009894595
     16        1          -0.014351001   -0.012474811   -0.015795633
     17        1          -0.011350716    0.004298075    0.011554013
 -------------------------------------------------------------------
 Cartesian Forces:  Max     0.031626687 RMS     0.013156566

 GradGradGradGradGradGradGradGradGradGradGradGradGradGradGradGradGradGrad
 Berny optimization.
 Using GEDIIS/GDIIS optimizer.
 FormGI is forming the generalized inverse of G from B-inverse, IUseBI=4.
 Internal  Forces:  Max     0.024673282 RMS     0.007908582
 Search for a local minimum.
 Step number   2 out of a maximum of  102
 All quantities printed in internal units (Hartrees-Bohrs-Radians)
 Mixed Optimization -- RFO/linear search
 Update second derivatives using D2CorX and points    1    2
 DE= -2.21D-02 DEPred=-5.12D-02 R= 4.32D-01
 Trust test= 4.32D-01 RLast= 3.63D-01 DXMaxT set to 3.00D-01
 ITU=  0  0
 Use linear search instead of GDIIS.
     Eigenvalues ---    0.00235   0.00242   0.00246   0.00256   0.03134
     Eigenvalues ---    0.03198   0.03537   0.04747   0.04756   0.04990
     Eigenvalues ---    0.05509   0.05580   0.05673   0.05711   0.08714
     Eigenvalues ---    0.08863   0.08954   0.12546   0.12612   0.12680
     Eigenvalues ---    0.15920   0.16000   0.16000   0.16000   0.16000
     Eigenvalues ---    0.16035   0.22101   0.22126   0.27557   0.28502
     Eigenvalues ---    0.28511   0.28617   0.32429   0.39218   0.39787
     Eigenvalues ---    0.39800   0.39808   0.39819   0.39862   0.39897
     Eigenvalues ---    0.39922   0.39950   0.39980   0.40014   0.61097
 RFO step:  Lambda=-1.56521548D-02 EMin= 2.35477687D-03
 Quartic linear search produced a step of  0.00839.
 Iteration  1 RMS(Cart)=  0.04953212 RMS(Int)=  0.00073109
 Iteration  2 RMS(Cart)=  0.00075976 RMS(Int)=  0.00008448
 Iteration  3 RMS(Cart)=  0.00000048 RMS(Int)=  0.00008448
 Variable       Old X    -DE/DX   Delta X   Delta X   Delta X     New X
                                 (Linear)    (Quad)   (Total)
    R1        2.92792  -0.00005   0.00016   0.00584   0.00600   2.93392
    R2        2.02324   0.01569   0.00033   0.05085   0.05118   2.07443
    R3        2.01888   0.01770   0.00029   0.05431   0.05460   2.07348
    R4        2.01809   0.01900   0.00028   0.05688   0.05715   2.07524
    R5        2.94392  -0.01257   0.00028  -0.03127  -0.03099   2.91294
    R6        2.02241   0.01682   0.00033   0.05354   0.05387   2.07628
    R7        2.02247   0.01791   0.00033   0.05629   0.05663   2.07909
    R8        2.94906  -0.01425   0.00033  -0.03498  -0.03465   2.91441
    R9        2.02534   0.01818   0.00033   0.05719   0.05753   2.08287
   R10        2.02429   0.01719   0.00034   0.05499   0.05533   2.07963
   R11        2.91605  -0.00464   0.00007  -0.01281  -0.01275   2.90330
   R12        2.02295   0.01751   0.00034   0.05560   0.05594   2.07889
   R13        2.02469   0.01779   0.00033   0.05614   0.05647   2.08116
   R14        2.02437   0.01596   0.00033   0.05161   0.05194   2.07631
   R15        2.00407   0.02467   0.00016   0.06600   0.06616   2.07023
   R16        2.02450   0.01660   0.00033   0.05313   0.05346   2.07796
    A1        1.91063   0.00346   0.00001   0.02244   0.02217   1.93280
    A2        1.92947   0.00357   0.00016   0.02611   0.02601   1.95548
    A3        1.92723   0.00174   0.00014   0.01301   0.01302   1.94024
    A4        1.89342  -0.00297  -0.00015  -0.01868  -0.01920   1.87422
    A5        1.89541  -0.00253  -0.00013  -0.01850  -0.01876   1.87665
    A6        1.90704  -0.00346  -0.00003  -0.02578  -0.02593   1.88110
    A7        2.02551  -0.00942   0.00096   0.00102   0.00191   2.02743
    A8        1.85810   0.00694  -0.00045   0.03647   0.03604   1.89414
    A9        1.91133   0.00194   0.00001   0.00250   0.00255   1.91388
   A10        1.87935   0.00042  -0.00026  -0.00934  -0.00987   1.86948
   A11        1.87974   0.00391  -0.00026  -0.00009  -0.00042   1.87932
   A12        1.90745  -0.00386  -0.00003  -0.03361  -0.03376   1.87369
   A13        2.05074  -0.01419   0.00118  -0.01332  -0.01216   2.03859
   A14        1.89222   0.00451  -0.00016   0.00203   0.00183   1.89405
   A15        1.85884   0.00486  -0.00045   0.01804   0.01763   1.87647
   A16        1.90080   0.00392  -0.00007   0.00116   0.00105   1.90185
   A17        1.84835   0.00520  -0.00052   0.01711   0.01661   1.86496
   A18        1.90900  -0.00420  -0.00001  -0.02668  -0.02667   1.88233
   A19        2.04046  -0.01242   0.00108  -0.00848  -0.00740   2.03306
   A20        1.87119   0.00271  -0.00034   0.00084   0.00048   1.87167
   A21        1.88558   0.00415  -0.00021   0.00312   0.00290   1.88848
   A22        1.86058   0.00599  -0.00043   0.02433   0.02391   1.88449
   A23        1.89569   0.00362  -0.00012   0.00652   0.00640   1.90208
   A24        1.90746  -0.00404  -0.00002  -0.02884  -0.02890   1.87856
   A25        1.90944   0.00159  -0.00001   0.01018   0.01008   1.91952
   A26        1.94235   0.00086   0.00026   0.01422   0.01438   1.95673
   A27        1.91554   0.00241   0.00004   0.01381   0.01377   1.92932
   A28        1.89016  -0.00090  -0.00016  -0.00868  -0.00894   1.88122
   A29        1.90054  -0.00193  -0.00008  -0.01350  -0.01364   1.88691
   A30        1.90520  -0.00214  -0.00005  -0.01699  -0.01712   1.88808
    D1        2.39398   0.00040  -0.00008   0.03813   0.03805   2.43203
    D2        0.30313   0.00063  -0.00006   0.02268   0.02247   0.32560
    D3       -1.75711   0.00031   0.00024   0.04075   0.04094  -1.71617
    D4       -1.80439   0.00112  -0.00016   0.04534   0.04532  -1.75907
    D5        2.38795   0.00135  -0.00014   0.02989   0.02974   2.41769
    D6        0.32771   0.00102   0.00016   0.04796   0.04820   0.37592
    D7        0.30809   0.00028  -0.00001   0.03881   0.03886   0.34695
    D8       -1.78276   0.00051   0.00001   0.02336   0.02328  -1.75948
    D9        2.44019   0.00019   0.00031   0.04143   0.04175   2.48194
   D10        1.34345  -0.00286   0.00073  -0.04323  -0.04245   1.30100
   D11       -0.81976  -0.00134   0.00014  -0.03652  -0.03635  -0.85611
   D12       -2.87237  -0.00129   0.00050  -0.01590  -0.01536  -2.88773
   D13       -2.86043   0.00035   0.00060  -0.00268  -0.00217  -2.86259
   D14        1.25955   0.00187   0.00001   0.00403   0.00394   1.26349
   D15       -0.79306   0.00191   0.00037   0.02465   0.02493  -0.76814
   D16       -0.80525  -0.00191   0.00027  -0.04716  -0.04682  -0.85207
   D17       -2.96846  -0.00039  -0.00032  -0.04044  -0.04071  -3.00918
   D18        1.26211  -0.00034   0.00004  -0.01983  -0.01973   1.24238
   D19       -1.32466   0.00229  -0.00057   0.04529   0.04470  -1.27997
   D20        2.87255   0.00047  -0.00048   0.01866   0.01817   2.89072
   D21        0.81861   0.00161  -0.00015   0.05043   0.05026   0.86887
   D22        0.83422   0.00099  -0.00003   0.03894   0.03891   0.87313
   D23       -1.25175  -0.00083   0.00006   0.01230   0.01239  -1.23936
   D24        2.97750   0.00031   0.00039   0.04408   0.04447   3.02197
   D25        2.88557   0.00082  -0.00038   0.01746   0.01708   2.90265
   D26        0.79960  -0.00100  -0.00029  -0.00917  -0.00945   0.79015
   D27       -1.25434   0.00014   0.00004   0.02261   0.02264  -1.23170
   D28       -3.11137  -0.00001   0.00024   0.00433   0.00458  -3.10679
   D29        1.08378  -0.00046   0.00029  -0.00040  -0.00012   1.08366
   D30       -1.02706   0.00006   0.00016   0.00241   0.00256  -1.02450
   D31       -1.01974   0.00013   0.00020   0.01842   0.01863  -1.00111
   D32       -3.10777  -0.00032   0.00025   0.01369   0.01393  -3.09384
   D33        1.06457   0.00020   0.00012   0.01650   0.01661   1.08118
   D34        1.03377   0.00047  -0.00013   0.00098   0.00086   1.03463
   D35       -1.05427   0.00002  -0.00008  -0.00375  -0.00384  -1.05811
   D36        3.11807   0.00054  -0.00021  -0.00094  -0.00115   3.11692
         Item               Value     Threshold  Converged?
 Maximum Force            0.024673     0.000450     NO 
 RMS     Force            0.007909     0.000300     NO 
 Maximum Displacement     0.166070     0.001800     NO 
 RMS     Displacement     0.049714     0.001200     NO 
 Predicted change in Energy=-8.416855D-03
 GradGradGradGradGradGradGradGradGradGradGradGradGradGradGradGradGradGrad

                          Input orientation:                          
 ---------------------------------------------------------------------
 Center     Atomic      Atomic             Coordinates (Angstroms)
 Number     Number       Type             X           Y           Z
 ---------------------------------------------------------------------
      1          6           0       -0.154546    0.100235   -0.215871
      2          6           0        1.116750    0.990949   -0.245611
      3          6           0        1.745759    1.323533    1.121807
      4          6           0        2.526770    0.192642    1.821528
      5          6           0        1.689811   -0.940960    2.433780
      6          1           0       -0.895999    0.456584   -0.942709
      7          1           0        0.069426   -0.945360   -0.461841
      8          1           0       -0.627862    0.117664    0.774910
      9          1           0        2.347593   -1.666008    2.932630
     10          1           0        0.862649    1.946109   -0.725498
     11          1           0        1.891255    0.510052   -0.861517
     12          1           0        0.949812    1.679574    1.796021
     13          1           0        2.453357    2.152239    0.968082
     14          1           0        3.115489    0.653813    2.628344
     15          1           0        3.234791   -0.236772    1.095456
     16          1           0        1.110032   -1.480571    1.676919
     17          1           0        0.989911   -0.542723    3.182570
 ---------------------------------------------------------------------
                    Distance matrix (angstroms):
                    1          2          3          4          5
     1  C    0.000000
     2  C    1.552562   0.000000
     3  C    2.626214   1.541459   0.000000
     4  C    3.368825   2.626502   1.542240   0.000000
     5  C    3.392107   3.352583   2.617697   1.536361   0.000000
     6  H    1.097739   2.196053   3.463049   4.407496   4.476631
     7  H    1.097239   2.211998   3.235106   3.542225   3.318176
     8  H    1.098171   2.201764   2.684872   3.324565   3.040418
     9  H    4.392422   4.321529   3.546638   2.172839   1.098737
    10  H    2.168330   1.098721   2.140098   3.511593   4.358946
    11  H    2.184058   1.100209   2.148603   2.775493   3.606245
    12  H    2.785970   2.161096   1.102208   2.167583   2.796701
    13  H    3.523297   2.146664   1.100491   2.138640   3.507015
    14  H    4.369112   3.516851   2.143442   1.100101   2.147956
    15  H    3.649761   2.791390   2.156957   1.101304   2.161933
    16  H    2.771418   3.131227   2.928361   2.197202   1.095519
    17  H    3.643155   3.757748   2.881139   2.180626   1.099609
                    6          7          8          9         10
     6  H    0.000000
     7  H    1.768821   0.000000
     8  H    1.771153   1.773636   0.000000
     9  H    5.481290   4.151122   4.085410   0.000000
    10  H    2.314887   3.009869   2.795722   5.351107   0.000000
    11  H    2.788949   2.365803   3.029491   4.397616   1.771664
    12  H    3.521841   3.572576   2.443621   3.799815   2.537065
    13  H    4.212429   4.162082   3.697394   4.295305   2.332608
    14  H    5.374324   4.624403   4.211336   2.462483   4.241884
    15  H    4.658142   3.598167   3.892103   2.490992   3.702419
    16  H    3.826119   2.437951   2.527499   1.772781   4.192248
    17  H    4.644696   3.780363   2.974916   1.779759   4.635027
                   11         12         13         14         15
    11  H    0.000000
    12  H    3.052312   0.000000
    13  H    2.521938   1.780321   0.000000
    14  H    3.701155   2.536752   2.332417   0.000000
    15  H    2.488490   3.063382   2.516791   1.776829   0.000000
    16  H    3.319119   3.166445   3.937548   3.079393   2.529770
    17  H    4.274974   2.619681   3.782651   2.501389   3.080444
                   16         17
    16  H    0.000000
    17  H    1.777913   0.000000
 Stoichiometry    C5H12
 Framework group  C1[X(C5H12)]
 Deg. of freedom    45
 Full point group                 C1      NOp   1
 Largest Abelian subgroup         C1      NOp   1
 Largest concise Abelian subgroup C1      NOp   1
                         Standard orientation:                         
 ---------------------------------------------------------------------
 Center     Atomic      Atomic             Coordinates (Angstroms)
 Number     Number       Type             X           Y           Z
 ---------------------------------------------------------------------
      1          6           0        1.705279    0.933070    0.056311
      2          6           0        1.306798   -0.534141   -0.258256
      3          6           0       -0.004477   -1.033966    0.379575
      4          6           0       -1.319606   -0.519827   -0.240587
      5          6           0       -1.686799    0.943900    0.047651
      6          1           0        2.785358    1.012686    0.235540
      7          1           0        1.458967    1.612657   -0.769174
      8          1           0        1.192926    1.298924    0.956102
      9          1           0       -2.654723    1.185782   -0.412609
     10          1           0        2.109988   -1.196852    0.092300
     11          1           0        1.221520   -0.669225   -1.346806
     12          1           0        0.009009   -0.780397    1.452134
     13          1           0       -0.018046   -2.130917    0.292433
     14          1           0       -2.131387   -1.155367    0.143237
     15          1           0       -1.266917   -0.667946   -1.330612
     16          1           0       -0.942739    1.641977   -0.351377
     17          1           0       -1.771130    1.114464    1.130672
 ---------------------------------------------------------------------
 Rotational constants (GHZ):           6.9675356           3.2093044           2.4603676
 Standard basis: 6-31G(d) (6D, 7F)
 There are    99 symmetry adapted cartesian basis functions of A   symmetry.
 There are    99 symmetry adapted basis functions of A   symmetry.
    99 basis functions,   188 primitive gaussians,    99 cartesian basis functions
    21 alpha electrons       21 beta electrons
       nuclear repulsion energy       189.2606566505 Hartrees.
 NAtoms=   17 NActive=   17 NUniq=   17 SFac= 1.00D+00 NAtFMM=   60 NAOKFM=F Big=F
 Integral buffers will be    131072 words long.
 Raffenetti 2 integral format.
 Two-electron integral symmetry is turned on.
 Nuclear repulsion after empirical dispersion term =      189.2603396026 Hartrees.
 One-electron integrals computed using PRISM.
 NBasis=    99 RedAO= T EigKep=  5.20D-03  NBF=    99
 NBsUse=    99 1.00D-06 EigRej= -1.00D+00 NBFU=    99
 Initial guess from the checkpoint file:  "pentane_21.chk"
 B after Tr=    -0.000000    0.000000    0.000000
         Rot=    0.999994   -0.000767   -0.000626    0.003251 Ang=  -0.39 deg.
 ExpMin= 1.61D-01 ExpMax= 3.05D+03 ExpMxC= 4.57D+02 IAcc=2 IRadAn=         4 AccDes= 0.00D+00
 Harris functional with IExCor= 1009 and IRadAn=       4 diagonalized for initial guess.
 HarFok:  IExCor= 1009 AccDes= 0.00D+00 IRadAn=         4 IDoV= 1 UseB2=F ITyADJ=14
 ICtDFT=  3500011 ScaDFX=  1.000000  1.000000  1.000000  1.000000
 FoFCou: FMM=F IPFlag=           0 FMFlag=      100000 FMFlg1=           0
         NFxFlg=           0 DoJE=T BraDBF=F KetDBF=T FulRan=T
         wScrn=  0.000000 ICntrl=       500 IOpCl=  0 I1Cent=   200000004 NGrid=           0
         NMat0=    1 NMatS0=      1 NMatT0=    0 NMatD0=    1 NMtDS0=    0 NMtDT0=    0
 Petite list used in FoFCou.
 Keep R1 ints in memory in canonical form, NReq=15944043.
 Requested convergence on RMS density matrix=1.00D-08 within 128 cycles.
 Requested convergence on MAX density matrix=1.00D-06.
 Requested convergence on             energy=1.00D-06.
 No special actions if energy rises.
 Integral accuracy reduced to 1.0D-05 until final iterations.
 Initial convergence to 1.0D-05 achieved.  Increase integral accuracy.
 SCF Done:  E(RM062X) =  -197.642849078     A.U. after   11 cycles
            NFock= 11  Conv=0.43D-08     -V/T= 2.0099
 Calling FoFJK, ICntrl=      2127 FMM=F ISym2X=0 I1Cent= 0 IOpClX= 0 NMat=1 NMatS=1 NMatT=0.
 ***** Axes restored to original set *****
 -------------------------------------------------------------------
 Center     Atomic                   Forces (Hartrees/Bohr)
 Number     Number              X              Y              Z
 -------------------------------------------------------------------
      1        6           0.004223096    0.002619877    0.000648885
      2        6          -0.001161072   -0.003301111    0.003129221
      3        6          -0.001875745   -0.004675003    0.000856141
      4        6          -0.003023886    0.000015185   -0.002185953
      5        6           0.001044933    0.003257522   -0.000979476
      6        1           0.002019470   -0.001877372    0.001501791
      7        1          -0.000416803    0.002159627    0.001954241
      8        1           0.000492447    0.000385148   -0.002023191
      9        1          -0.002669004    0.001748623   -0.000816449
     10        1           0.001551489   -0.002584964   -0.000093911
     11        1          -0.002544892    0.002716423   -0.001536235
     12        1           0.002821203    0.001701157   -0.000727522
     13        1          -0.003372081   -0.000547923    0.001331133
     14        1           0.000756790   -0.002341558   -0.002662929
     15        1           0.000435515    0.001566579    0.002807834
     16        1           0.000536594    0.000805640    0.000875024
     17        1           0.001181948   -0.001647849   -0.002078604
 -------------------------------------------------------------------
 Cartesian Forces:  Max     0.004675003 RMS     0.002065805

 GradGradGradGradGradGradGradGradGradGradGradGradGradGradGradGradGradGrad
 Berny optimization.
 Using GEDIIS/GDIIS optimizer.
 FormGI is forming the generalized inverse of G from B-inverse, IUseBI=4.
 Internal  Forces:  Max     0.007671133 RMS     0.002375502
 Search for a local minimum.
 Step number   3 out of a maximum of  102
 All quantities printed in internal units (Hartrees-Bohrs-Radians)
 Mixed Optimization -- RFO/linear search
 Update second derivatives using D2CorX and points    1    2    3
 DE= -7.58D-03 DEPred=-8.42D-03 R= 9.00D-01
 TightC=F SS=  1.41D+00  RLast= 2.84D-01 DXNew= 5.0454D-01 8.5082D-01
 Trust test= 9.00D-01 RLast= 2.84D-01 DXMaxT set to 5.05D-01
 ITU=  1  0  0
 Use linear search instead of GDIIS.
     Eigenvalues ---    0.00235   0.00241   0.00250   0.00259   0.03128
     Eigenvalues ---    0.03148   0.03526   0.04692   0.04708   0.04751
     Eigenvalues ---    0.05333   0.05400   0.05456   0.05584   0.08844
     Eigenvalues ---    0.08896   0.08910   0.12585   0.12625   0.12685
     Eigenvalues ---    0.15692   0.16000   0.16000   0.16000   0.16020
     Eigenvalues ---    0.16038   0.22030   0.22051   0.26889   0.28473
     Eigenvalues ---    0.28504   0.28642   0.36689   0.39701   0.39799
     Eigenvalues ---    0.39804   0.39808   0.39859   0.39896   0.39910
     Eigenvalues ---    0.39946   0.39964   0.40014   0.40286   0.63957
 RFO step:  Lambda=-2.20388933D-03 EMin= 2.35160058D-03
 Quartic linear search produced a step of -0.00853.
 Iteration  1 RMS(Cart)=  0.07583687 RMS(Int)=  0.00457901
 Iteration  2 RMS(Cart)=  0.00482397 RMS(Int)=  0.00003045
 Iteration  3 RMS(Cart)=  0.00001904 RMS(Int)=  0.00002606
 Iteration  4 RMS(Cart)=  0.00000000 RMS(Int)=  0.00002606
 Variable       Old X    -DE/DX   Delta X   Delta X   Delta X     New X
                                 (Linear)    (Quad)   (Total)
    R1        2.93392  -0.00702  -0.00005  -0.02147  -0.02152   2.91239
    R2        2.07443  -0.00297  -0.00044  -0.00454  -0.00498   2.06945
    R3        2.07348  -0.00258  -0.00047  -0.00370  -0.00417   2.06931
    R4        2.07524  -0.00203  -0.00049  -0.00245  -0.00294   2.07230
    R5        2.91294  -0.00490   0.00026  -0.01495  -0.01469   2.89825
    R6        2.07628  -0.00256  -0.00046  -0.00355  -0.00401   2.07227
    R7        2.07909  -0.00212  -0.00048  -0.00246  -0.00294   2.07615
    R8        2.91441  -0.00566   0.00030  -0.01720  -0.01690   2.89751
    R9        2.08287  -0.00193  -0.00049  -0.00202  -0.00252   2.08036
   R10        2.07963  -0.00277  -0.00047  -0.00394  -0.00441   2.07521
   R11        2.90330  -0.00432   0.00011  -0.01369  -0.01358   2.88972
   R12        2.07889  -0.00253  -0.00048  -0.00338  -0.00386   2.07503
   R13        2.08116  -0.00218  -0.00048  -0.00262  -0.00310   2.07806
   R14        2.07631  -0.00312  -0.00044  -0.00489  -0.00533   2.07098
   R15        2.07023  -0.00128  -0.00056  -0.00094  -0.00151   2.06872
   R16        2.07796  -0.00277  -0.00046  -0.00404  -0.00450   2.07346
    A1        1.93280   0.00087  -0.00019   0.00608   0.00588   1.93869
    A2        1.95548  -0.00003  -0.00022   0.00186   0.00164   1.95712
    A3        1.94024  -0.00013  -0.00011   0.00037   0.00026   1.94050
    A4        1.87422  -0.00021   0.00016  -0.00217  -0.00201   1.87221
    A5        1.87665  -0.00025   0.00016  -0.00282  -0.00266   1.87399
    A6        1.88110  -0.00029   0.00022  -0.00383  -0.00361   1.87750
    A7        2.02743  -0.00669  -0.00002  -0.01654  -0.01650   2.01092
    A8        1.89414   0.00220  -0.00031   0.00501   0.00476   1.89890
    A9        1.91388   0.00132  -0.00002   0.00667   0.00671   1.92059
   A10        1.86948   0.00258   0.00008   0.01152   0.01161   1.88108
   A11        1.87932   0.00299   0.00000   0.01777   0.01779   1.89711
   A12        1.87369  -0.00221   0.00029  -0.02598  -0.02573   1.84796
   A13        2.03859  -0.00767   0.00010  -0.01915  -0.01898   2.01960
   A14        1.89405   0.00270  -0.00002   0.01579   0.01583   1.90988
   A15        1.87647   0.00235  -0.00015   0.00548   0.00537   1.88184
   A16        1.90185   0.00207  -0.00001   0.01285   0.01290   1.91475
   A17        1.86496   0.00318  -0.00014   0.01071   0.01058   1.87555
   A18        1.88233  -0.00245   0.00023  -0.02792  -0.02770   1.85463
   A19        2.03306  -0.00751   0.00006  -0.01943  -0.01930   2.01377
   A20        1.87167   0.00284  -0.00000   0.01161   0.01162   1.88330
   A21        1.88848   0.00269  -0.00002   0.01489   0.01491   1.90339
   A22        1.88449   0.00243  -0.00020   0.00688   0.00674   1.89123
   A23        1.90208   0.00212  -0.00005   0.01076   0.01078   1.91286
   A24        1.87856  -0.00239   0.00025  -0.02645  -0.02623   1.85233
   A25        1.91952   0.00138  -0.00009   0.00863   0.00852   1.92804
   A26        1.95673  -0.00056  -0.00012  -0.00079  -0.00091   1.95582
   A27        1.92932   0.00084  -0.00012   0.00508   0.00495   1.93426
   A28        1.88122  -0.00030   0.00008  -0.00289  -0.00281   1.87841
   A29        1.88691  -0.00090   0.00012  -0.00532  -0.00523   1.88168
   A30        1.88808  -0.00053   0.00015  -0.00530  -0.00515   1.88294
    D1        2.43203   0.00070  -0.00032   0.12884   0.12852   2.56055
    D2        0.32560   0.00018  -0.00019   0.12122   0.12102   0.44662
    D3       -1.71617   0.00084  -0.00035   0.14580   0.14545  -1.57072
    D4       -1.75907   0.00100  -0.00039   0.13150   0.13112  -1.62795
    D5        2.41769   0.00049  -0.00025   0.12387   0.12362   2.54130
    D6        0.37592   0.00115  -0.00041   0.14845   0.14804   0.52396
    D7        0.34695   0.00052  -0.00033   0.12814   0.12781   0.47476
    D8       -1.75948   0.00000  -0.00020   0.12051   0.12031  -1.63917
    D9        2.48194   0.00066  -0.00036   0.14509   0.14474   2.62667
   D10        1.30100  -0.00108   0.00036   0.06098   0.06133   1.36233
   D11       -0.85611  -0.00043   0.00031   0.04479   0.04511  -0.81100
   D12       -2.88773  -0.00019   0.00013   0.06651   0.06664  -2.82109
   D13       -2.86259  -0.00067   0.00002   0.06533   0.06531  -2.79728
   D14        1.26349  -0.00003  -0.00003   0.04914   0.04909   1.31258
   D15       -0.76814   0.00021  -0.00021   0.07086   0.07063  -0.69751
   D16       -0.85207  -0.00049   0.00040   0.04967   0.05009  -0.80198
   D17       -3.00918   0.00016   0.00035   0.03348   0.03387  -2.97531
   D18        1.24238   0.00040   0.00017   0.05520   0.05540   1.29779
   D19       -1.27997   0.00092  -0.00038   0.00778   0.00739  -1.27257
   D20        2.89072   0.00056  -0.00015   0.00279   0.00265   2.89338
   D21        0.86887   0.00053  -0.00043   0.02017   0.01972   0.88859
   D22        0.87313   0.00056  -0.00033   0.02544   0.02509   0.89823
   D23       -1.23936   0.00020  -0.00011   0.02045   0.02035  -1.21901
   D24        3.02197   0.00017  -0.00038   0.03783   0.03742   3.05939
   D25        2.90265   0.00043  -0.00015   0.00491   0.00479   2.90743
   D26        0.79015   0.00007   0.00008  -0.00007   0.00005   0.79020
   D27       -1.23170   0.00003  -0.00019   0.01731   0.01711  -1.21459
   D28       -3.10679  -0.00012  -0.00004   0.06421   0.06416  -3.04264
   D29        1.08366  -0.00031   0.00000   0.06252   0.06251   1.14617
   D30       -1.02450   0.00017  -0.00002   0.06627   0.06625  -0.95825
   D31       -1.00111   0.00040  -0.00016   0.07158   0.07142  -0.92969
   D32       -3.09384   0.00022  -0.00012   0.06989   0.06977  -3.02407
   D33        1.08118   0.00070  -0.00014   0.07365   0.07351   1.15469
   D34        1.03463   0.00004  -0.00001   0.04976   0.04975   1.08438
   D35       -1.05811  -0.00015   0.00003   0.04807   0.04811  -1.01000
   D36        3.11692   0.00033   0.00001   0.05182   0.05185  -3.11442
         Item               Value     Threshold  Converged?
 Maximum Force            0.007671     0.000450     NO 
 RMS     Force            0.002376     0.000300     NO 
 Maximum Displacement     0.388073     0.001800     NO 
 RMS     Displacement     0.075679     0.001200     NO 
 Predicted change in Energy=-1.363016D-03
 GradGradGradGradGradGradGradGradGradGradGradGradGradGradGradGradGradGrad

                          Input orientation:                          
 ---------------------------------------------------------------------
 Center     Atomic      Atomic             Coordinates (Angstroms)
 Number     Number       Type             X           Y           Z
 ---------------------------------------------------------------------
      1          6           0       -0.162270    0.123894   -0.175096
      2          6           0        1.121555    0.974923   -0.227575
      3          6           0        1.733689    1.318905    1.135938
      4          6           0        2.534513    0.197131    1.807727
      5          6           0        1.701704   -0.950764    2.379694
      6          1           0       -0.841188    0.384338   -0.993933
      7          1           0        0.049269   -0.947426   -0.256482
      8          1           0       -0.705497    0.283702    0.764015
      9          1           0        2.341396   -1.653207    2.925953
     10          1           0        0.899950    1.917419   -0.742471
     11          1           0        1.882925    0.470538   -0.838271
     12          1           0        0.941042    1.667542    1.815712
     13          1           0        2.413435    2.169669    0.994190
     14          1           0        3.118081    0.641621    2.624802
     15          1           0        3.266964   -0.200381    1.090263
     16          1           0        1.184685   -1.513841    1.596079
     17          1           0        0.944746   -0.573062    3.078454
 ---------------------------------------------------------------------
                    Distance matrix (angstroms):
                    1          2          3          4          5
     1  C    0.000000
     2  C    1.541173   0.000000
     3  C    2.596445   1.533688   0.000000
     4  C    3.348072   2.596894   1.533296   0.000000
     5  C    3.340096   3.292825   2.588310   1.529177   0.000000
     6  H    1.095105   2.188254   3.469835   4.390865   4.430593
     7  H    1.095033   2.201378   3.148391   3.427449   3.111266
     8  H    1.096614   2.190698   2.675743   3.405068   3.151022
     9  H    4.363821   4.282501   3.522345   2.170594   1.095916
    10  H    2.160315   1.096598   2.140505   3.483489   4.314766
    11  H    2.177794   1.098653   2.153950   2.738726   3.522533
    12  H    2.750175   2.165023   1.100877   2.168253   2.784278
    13  H    3.490943   2.142214   1.098156   2.137149   3.487590
    14  H    4.343751   3.497607   2.142888   1.098060   2.145202
    15  H    3.669596   2.778635   2.158992   1.099661   2.162347
    16  H    2.762883   3.086041   2.921915   2.189579   1.094722
    17  H    3.506682   3.654770   2.824064   2.176075   1.097228
                    6          7          8          9         10
     6  H    0.000000
     7  H    1.763616   0.000000
     8  H    1.766046   1.768265   0.000000
     9  H    5.444808   3.984955   4.208223   0.000000
    10  H    2.333481   3.027736   2.741531   5.318315   0.000000
    11  H    2.729918   2.389853   3.049943   4.346248   1.751823
    12  H    3.566099   3.453593   2.394195   3.771074   2.570687
    13  H    4.211011   4.107280   3.652067   4.283840   2.317382
    14  H    5.370032   4.499387   4.267363   2.441346   4.229219
    15  H    4.643563   3.567262   4.015123   2.517367   3.666981
    16  H    3.796763   2.245435   2.737933   1.768040   4.162144
    17  H    4.548681   3.473301   2.968833   1.772174   4.561137
                   11         12         13         14         15
    11  H    0.000000
    12  H    3.059998   0.000000
    13  H    2.554682   1.759254   0.000000
    14  H    3.680727   2.539023   2.343150   0.000000
    15  H    2.466767   3.070069   2.520889   1.756685   0.000000
    16  H    3.217353   3.198249   3.929421   3.072834   2.513347
    17  H    4.160530   2.571932   3.744833   2.530739   3.079689
                   16         17
    16  H    0.000000
    17  H    1.772024   0.000000
 Stoichiometry    C5H12
 Framework group  C1[X(C5H12)]
 Deg. of freedom    45
 Full point group                 C1      NOp   1
 Largest Abelian subgroup         C1      NOp   1
 Largest concise Abelian subgroup C1      NOp   1
                         Standard orientation:                         
 ---------------------------------------------------------------------
 Center     Atomic      Atomic             Coordinates (Angstroms)
 Number     Number       Type             X           Y           Z
 ---------------------------------------------------------------------
      1          6           0        1.694190    0.909749    0.068478
      2          6           0        1.276899   -0.531413   -0.283847
      3          6           0       -0.009880   -1.022544    0.390828
[...]
 ! A20   A(3,4,14)             109.4862         -DE/DX =    0.0                 !
 ! A21   A(3,4,15)             109.2649         -DE/DX =    0.0                 !
 ! A22   A(5,4,14)             108.2429         -DE/DX =    0.0                 !
 ! A23   A(5,4,15)             109.8325         -DE/DX =    0.0                 !
 ! A24   A(14,4,15)            105.8924         -DE/DX =    0.0                 !
 ! A25   A(4,5,9)              111.3302         -DE/DX =    0.0                 !
 ! A26   A(4,5,16)             111.9013         -DE/DX =    0.0                 !
 ! A27   A(4,5,17)             110.3699         -DE/DX =    0.0                 !
 ! A28   A(9,5,16)             107.8714         -DE/DX =    0.0                 !
 ! A29   A(9,5,17)             107.7629         -DE/DX =    0.0                 !
 ! A30   A(16,5,17)            107.4232         -DE/DX =    0.0                 !
 ! D1    D(6,1,2,3)            175.6335         -DE/DX =    0.0                 !
 ! D2    D(6,1,2,10)            53.4297         -DE/DX =    0.0                 !
 ! D3    D(6,1,2,11)           -62.3165         -DE/DX =    0.0                 !
 ! D4    D(7,1,2,3)            -64.5904         -DE/DX =    0.0                 !
 ! D5    D(7,1,2,10)           173.2058         -DE/DX =    0.0                 !
 ! D6    D(7,1,2,11)            57.4596         -DE/DX =    0.0                 !
 ! D7    D(8,1,2,3)             55.5939         -DE/DX =    0.0                 !
 ! D8    D(8,1,2,10)           -66.6099         -DE/DX =    0.0                 !
 ! D9    D(8,1,2,11)           177.644          -DE/DX =    0.0                 !
 ! D10   D(1,2,3,4)             58.7852         -DE/DX =    0.0                 !
 ! D11   D(1,2,3,12)           -63.9625         -DE/DX =    0.0                 !
 ! D12   D(1,2,3,13)          -178.9336         -DE/DX =    0.0                 !
 ! D13   D(10,2,3,4)          -178.7671         -DE/DX =    0.0                 !
 ! D14   D(10,2,3,12)           58.4853         -DE/DX =    0.0                 !
 ! D15   D(10,2,3,13)          -56.4858         -DE/DX =    0.0                 !
 ! D16   D(11,2,3,4)           -63.4634         -DE/DX =    0.0                 !
 ! D17   D(11,2,3,12)          173.7889         -DE/DX =    0.0                 !
 ! D18   D(11,2,3,13)           58.8179         -DE/DX =    0.0                 !
 ! D19   D(2,3,4,5)            -95.2557         -DE/DX =    0.0                 !
 ! D20   D(2,3,4,14)           143.4685         -DE/DX =    0.0                 !
 ! D21   D(2,3,4,15)            27.9138         -DE/DX =    0.0                 !
 ! D22   D(12,3,4,5)            27.5571         -DE/DX =    0.0                 !
 ! D23   D(12,3,4,14)          -93.7188         -DE/DX =    0.0                 !
 ! D24   D(12,3,4,15)          150.7266         -DE/DX =    0.0                 !
 ! D25   D(13,3,4,5)           143.3476         -DE/DX =    0.0                 !
 ! D26   D(13,3,4,14)           22.0717         -DE/DX =    0.0                 !
 ! D27   D(13,3,4,15)          -93.4829         -DE/DX =    0.0                 !
 ! D28   D(3,4,5,9)            178.7797         -DE/DX =    0.0                 !
 ! D29   D(3,4,5,16)            57.9785         -DE/DX =    0.0                 !
 ! D30   D(3,4,5,17)           -61.5935         -DE/DX =    0.0                 !
 ! D31   D(14,4,5,9)           -59.2545         -DE/DX =    0.0                 !
 ! D32   D(14,4,5,16)          179.9443         -DE/DX =    0.0                 !
 ! D33   D(14,4,5,17)           60.3723         -DE/DX =    0.0                 !
 ! D34   D(15,4,5,9)            55.9203         -DE/DX =    0.0                 !
 ! D35   D(15,4,5,16)          -64.8809         -DE/DX =    0.0                 !
 ! D36   D(15,4,5,17)          175.5471         -DE/DX =    0.0                 !
 --------------------------------------------------------------------------------
 GradGradGradGradGradGradGradGradGradGradGradGradGradGradGradGradGradGrad

                          Input orientation:                          
 ---------------------------------------------------------------------
 Center     Atomic      Atomic             Coordinates (Angstroms)
 Number     Number       Type             X           Y           Z
 ---------------------------------------------------------------------
      1          6           0        0.042519    0.022645   -0.302563
      2          6           0        1.055018    1.161529   -0.199296
      3          6           0        1.706524    1.307516    1.179671
      4          6           0        2.463936    0.057147    1.661784
      5          6           0        1.634384   -0.857801    2.564139
      6          1           0       -0.443489    0.016681   -1.282740
      7          1           0        0.522367   -0.952021   -0.167407
      8          1           0       -0.738702    0.120090    0.459735
      9          1           0        2.203664   -1.742609    2.865046
     10          1           0        0.563189    2.106571   -0.459125
     11          1           0        1.843862    1.009775   -0.947652
     12          1           0        0.936673    1.570314    1.918819
     13          1           0        2.393660    2.160542    1.140139
     14          1           0        3.359856    0.362685    2.213770
     15          1           0        2.824930   -0.506303    0.790585
     16          1           0        0.720503   -1.198876    2.069635
     17          1           0        1.336106   -0.326883    3.474458
 ---------------------------------------------------------------------
                    Distance matrix (angstroms):
                    1          2          3          4          5
     1  C    0.000000
     2  C    1.527375   0.000000
     3  C    2.572319   1.532098   0.000000
     4  C    3.118190   2.582311   1.539327   0.000000
     5  C    3.395173   3.471301   2.571100   1.529552   0.000000
     6  H    1.094068   2.174868   3.514580   4.138234   4.458783
     7  H    1.094758   2.179869   2.884849   2.852026   2.950729
     8  H    1.095857   2.176316   2.812013   3.421370   3.319085
     9  H    4.221423   4.375340   3.520071   2.180528   1.094308
    10  H    2.153685   1.096591   2.152059   3.508737   4.367504
    11  H    2.152997   1.097879   2.152444   2.846252   3.983014
    12  H    2.851198   2.160446   1.099124   2.165242   2.607485
    13  H    3.489965   2.141046   1.096071   2.168254   3.422670
    14  H    4.177594   3.431227   2.166928   1.095772   2.142335
    15  H    3.035880   2.625665   2.166139   1.098535   2.164819
    16  H    2.753017   3.291118   2.836595   2.187120   1.093638
    17  H    4.007671   3.973771   2.841570   2.169163   1.095228
                    6          7          8          9         10
     6  H    0.000000
     7  H    1.765001   0.000000
     8  H    1.770329   1.770035   0.000000
     9  H    5.225576   3.556341   4.232338   0.000000
    10  H    2.461582   3.072744   2.546632   5.343918   0.000000
    11  H    2.516047   2.490738   3.072770   4.716115   1.755489
    12  H    3.816884   3.299419   2.653103   3.670976   2.466107
    13  H    4.303010   3.859983   3.799748   4.271532   2.431292
    14  H    5.177908   3.930624   4.464714   2.488615   4.243449
    15  H    3.905733   2.533419   3.633360   2.493554   3.674828
    16  H    3.751116   2.259326   2.541796   1.768640   4.164776
    17  H    5.090769   3.783669   3.686891   1.768705   4.689582
                   11         12         13         14         15
    11  H    0.000000
    12  H    3.058407   0.000000
    13  H    2.446511   1.754287   0.000000
    14  H    3.565327   2.723450   2.306190   0.000000
    15  H    2.506483   3.025023   2.724012   1.751211   0.000000
    16  H    3.904368   2.781705   3.866407   3.070086   2.558171
    17  H    4.647530   2.485742   3.571379   2.482016   3.074405
                   16         17
    16  H    0.000000
    17  H    1.764332   0.000000
 Stoichiometry    C5H12
 Framework group  C1[X(C5H12)]
 Deg. of freedom    45
 Full point group                 C1      NOp   1
 Largest Abelian subgroup         C1      NOp   1
 Largest concise Abelian subgroup C1      NOp   1
                         Standard orientation:                         
 ---------------------------------------------------------------------
 Center     Atomic      Atomic             Coordinates (Angstroms)
 Number     Number       Type             X           Y           Z
 ---------------------------------------------------------------------
      1          6           0        1.558454    1.019452   -0.031899
      2          6           0        1.406949   -0.499620   -0.080295
      3          6           0        0.035769   -1.014619    0.369110
      4          6           0       -1.148608   -0.470577   -0.449913
      5          6           0       -1.820078    0.754056    0.173730
      6          1           0        2.578244    1.320974   -0.288995
      7          1           0        0.882058    1.511136   -0.738461
      8          1           0        1.335719    1.405598    0.969192
      9          1           0       -2.640924    1.119295   -0.451028
     10          1           0        2.179755   -0.959725    0.547069
     11          1           0        1.595650   -0.846944   -1.104550
     12          1           0       -0.115064   -0.767505    1.429420
     13          1           0        0.050301   -2.109063    0.311208
     14          1           0       -1.904820   -1.255249   -0.564587
     15          1           0       -0.806970   -0.231229   -1.466169
     16          1           0       -1.114790    1.577621    0.316398
     17          1           0       -2.234074    0.502933    1.156109
 ---------------------------------------------------------------------
 Rotational constants (GHZ):           7.2560334           3.2251556           2.5459692

 **********************************************************************

            Population analysis using the SCF density.

 **********************************************************************

 Orbital symmetries:
       Occupied  (A) (A) (A) (A) (A) (A) (A) (A) (A) (A) (A) (A)
                 (A) (A) (A) (A) (A) (A) (A) (A) (A)
       Virtual   (A) (A) (A) (A) (A) (A) (A) (A) (A) (A) (A) (A)
                 (A) (A) (A) (A) (A) (A) (A) (A) (A) (A) (A) (A)
                 (A) (A) (A) (A) (A) (A) (A) (A) (A) (A) (A) (A)
                 (A) (A) (A) (A) (A) (A) (A) (A) (A) (A) (A) (A)
                 (A) (A) (A) (A) (A) (A) (A) (A) (A) (A) (A) (A)
                 (A) (A) (A) (A) (A) (A) (A) (A) (A) (A) (A) (A)
                 (A) (A) (A) (A) (A) (A)
 The electronic state is 1-A.
 Alpha  occ. eigenvalues --  -10.53481 -10.53453 -10.53249 -10.52817 -10.52694
 Alpha  occ. eigenvalues --   -0.89703  -0.83590  -0.76625  -0.68806  -0.63886
 Alpha  occ. eigenvalues --   -0.53399  -0.51517  -0.49532  -0.46395  -0.45097
 Alpha  occ. eigenvalues --   -0.42997  -0.41565  -0.40176  -0.37572  -0.36882
 Alpha  occ. eigenvalues --   -0.36203
 Alpha virt. eigenvalues --    0.12937   0.16607   0.17327   0.17720   0.19197
 Alpha virt. eigenvalues --    0.20937   0.22168   0.22331   0.23613   0.24612
 Alpha virt. eigenvalues --    0.24802   0.26253   0.28021   0.29253   0.32833
 Alpha virt. eigenvalues --    0.35215   0.53927   0.57449   0.57915   0.58462
 Alpha virt. eigenvalues --    0.60105   0.64319   0.66497   0.71679   0.72890
 Alpha virt. eigenvalues --    0.76073   0.77522   0.78282   0.80950   0.91496
 Alpha virt. eigenvalues --    0.93452   0.94352   0.94566   0.95505   0.97621
 Alpha virt. eigenvalues --    0.97905   1.01005   1.02517   1.03651   1.04568
 Alpha virt. eigenvalues --    1.05151   1.06866   1.08782   1.11241   1.21798
 Alpha virt. eigenvalues --    1.46081   1.49442   1.53434   1.63659   1.65418
 Alpha virt. eigenvalues --    1.72087   1.72476   1.80101   1.94124   1.95674
 Alpha virt. eigenvalues --    1.97512   2.01393   2.05981   2.08545   2.12089
 Alpha virt. eigenvalues --    2.18979   2.25206   2.30964   2.36232   2.37350
 Alpha virt. eigenvalues --    2.39851   2.42303   2.45810   2.49835   2.62180
 Alpha virt. eigenvalues --    2.65292   2.70144   2.75258   4.14866   4.24207
 Alpha virt. eigenvalues --    4.35932   4.49956   4.56042
          Condensed to atoms (all electrons):
               1          2          3          4          5          6
     1  C    5.108749   0.363504  -0.054092  -0.002546  -0.001547   0.381613
     2  C    0.363504   4.997131   0.378493  -0.043343  -0.001274  -0.030092
     3  C   -0.054092   0.378493   5.056290   0.353034  -0.043920   0.004658
     4  C   -0.002546  -0.043343   0.353034   5.037193   0.363441  -0.000117
     5  C   -0.001547  -0.001274  -0.043920   0.363441   5.101414   0.000161
     6  H    0.381613  -0.030092   0.004658  -0.000117   0.000161   0.547862
     7  H    0.383043  -0.033687  -0.006164   0.005598  -0.003274  -0.028882
     8  H    0.383272  -0.037941  -0.002942  -0.001352  -0.000273  -0.028433
     9  H   -0.000028  -0.000084   0.004469  -0.031714   0.380528  -0.000003
    10  H   -0.040041   0.387808  -0.038216   0.005230  -0.000209  -0.004220
    11  H   -0.041669   0.386280  -0.039568  -0.006823   0.000023  -0.002452
    12  H   -0.005515  -0.038484   0.383984  -0.048296  -0.006680  -0.000040
    13  H    0.005169  -0.036452   0.383912  -0.035378   0.004134  -0.000138
    14  H    0.000084   0.003741  -0.034920   0.388964  -0.039916   0.000002
    15  H   -0.000986  -0.005664  -0.047450   0.387167  -0.039309  -0.000112
    16  H    0.001874  -0.000221  -0.002126  -0.038728   0.384451   0.000101
    17  H    0.000016   0.000111  -0.005803  -0.035433   0.383923  -0.000005
               7          8          9         10         11         12
     1  C    0.383043   0.383272  -0.000028  -0.040041  -0.041669  -0.005515
     2  C   -0.033687  -0.037941  -0.000084   0.387808   0.386280  -0.038484
     3  C   -0.006164  -0.002942   0.004469  -0.038216  -0.039568   0.383984
     4  C    0.005598  -0.001352  -0.031714   0.005230  -0.006823  -0.048296
     5  C   -0.003274  -0.000273   0.380528  -0.000209   0.000023  -0.006680
     6  H   -0.028882  -0.028433  -0.000003  -0.004220  -0.002452  -0.000040
     7  H    0.554403  -0.032333   0.000167   0.004860  -0.004919  -0.000129
     8  H   -0.032333   0.558113   0.000025  -0.003480   0.005104   0.004577
     9  H    0.000167   0.000025   0.550993   0.000003   0.000009   0.000214
    10  H    0.004860  -0.003480   0.000003   0.579109  -0.034069  -0.003698
    11  H   -0.004919   0.005104   0.000009  -0.034069   0.584118   0.005470
    12  H   -0.000129   0.004577   0.000214  -0.003698   0.005470   0.586571
    13  H   -0.000049  -0.000007  -0.000159  -0.003197  -0.003919  -0.032995
    14  H   -0.000027  -0.000018  -0.002962  -0.000158   0.000026   0.001224
    15  H    0.001773   0.000229  -0.002707   0.000215   0.004500   0.004990
    16  H    0.001388   0.001172  -0.028069  -0.000057   0.000065   0.000598
    17  H    0.000067   0.000053  -0.028323   0.000011   0.000004   0.004451
              13         14         15         16         17
     1  C    0.005169   0.000084  -0.000986   0.001874   0.000016
     2  C   -0.036452   0.003741  -0.005664  -0.000221   0.000111
     3  C    0.383912  -0.034920  -0.047450  -0.002126  -0.005803
     4  C   -0.035378   0.388964   0.387167  -0.038728  -0.035433
     5  C    0.004134  -0.039916  -0.039309   0.384451   0.383923
     6  H   -0.000138   0.000002  -0.000112   0.000101  -0.000005
     7  H   -0.000049  -0.000027   0.001773   0.001388   0.000067
     8  H   -0.000007  -0.000018   0.000229   0.001172   0.000053
     9  H   -0.000159  -0.002962  -0.002707  -0.028069  -0.028323
    10  H   -0.003197  -0.000158   0.000215  -0.000057   0.000011
    11  H   -0.003919   0.000026   0.004500   0.000065   0.000004
    12  H   -0.032995   0.001224   0.004990   0.000598   0.004451
    13  H    0.574374  -0.007596   0.001443  -0.000035   0.000104
    14  H   -0.007596   0.572152  -0.034312   0.004866  -0.004645
    15  H    0.001443  -0.034312   0.581695  -0.003897   0.004854
    16  H   -0.000035   0.004866  -0.003897   0.549789  -0.030385
    17  H    0.000104  -0.004645   0.004854  -0.030385   0.554947
 Mulliken charges:
               1
     1  C   -0.480901
     2  C   -0.289825
     3  C   -0.289638
     4  C   -0.296899
     5  C   -0.481674
     6  H    0.160096
     7  H    0.158167
     8  H    0.154233
     9  H    0.157640
    10  H    0.150107
    11  H    0.147820
    12  H    0.143757
    13  H    0.150788
    14  H    0.153495
    15  H    0.147568
    16  H    0.159214
    17  H    0.156053
 Sum of Mulliken charges =  -0.00000
 Mulliken charges with hydrogens summed into heavy atoms:
               1
     1  C   -0.008405
     2  C    0.008102
     3  C    0.004907
     4  C    0.004163
     5  C   -0.008767
 Electronic spatial extent (au):  <R**2>=            566.4294
 Charge=             -0.0000 electrons
 Dipole moment (field-independent basis, Debye):
    X=              0.0333    Y=             -0.0989    Z=             -0.0272  Tot=              0.1078
 Quadrupole moment (field-independent basis, Debye-Ang):
   XX=            -34.8525   YY=            -35.1576   ZZ=            -34.7409
   XY=              0.1520   XZ=              0.0758   YZ=             -0.0856
 Traceless Quadrupole moment (field-independent basis, Debye-Ang):
   XX=              0.0645   YY=             -0.2406   ZZ=              0.1761
   XY=              0.1520   XZ=              0.0758   YZ=             -0.0856
 Octapole moment (field-independent basis, Debye-Ang**2):
  XXX=              0.6603  YYY=             -1.8065  ZZZ=              0.2961  XYY=             -0.1847
  XXY=             -0.4029  XXZ=             -0.3687  XZZ=             -0.0470  YZZ=              0.2945
  YYZ=             -0.3570  XYZ=              0.2438
 Hexadecapole moment (field-independent basis, Debye-Ang**3):
 XXXX=           -468.3288 YYYY=           -218.1096 ZZZZ=            -89.0375 XXXY=              2.2320
 XXXZ=              1.5596 YYYX=              0.5726 YYYZ=              0.0470 ZZZX=             -1.0073
 ZZZY=              0.4025 XXYY=           -115.9015 XXZZ=            -93.4269 YYZZ=            -52.1657
 XXYZ=             -2.2745 YYXZ=              1.1581 ZZXY=             -0.6674
 N-N= 1.910465887713D+02 E-N=-8.381283835901D+02  KE= 1.958183911448D+02
 1\1\GINC-ROBERTS-MACBOOK-PRO-2\FOpt\RM062X\6-31G(d)\C5H12\ROBERT.PATON
 \22-Sep-2018\0\\# opt=(maxcycles=160) M062X/6-31G(d) emp=GD3\\Generate
 d by prepare_file.py\\0,1\C,0.0425194608,0.0226447398,-0.3025634522\C,
 1.0550184466,1.1615288033,-0.199296451\C,1.7065239593,1.3075157838,1.1
 796709641\C,2.4639360026,0.0571467537,1.6617842871\C,1.6343838835,-0.8
 578010653,2.5641389408\H,-0.4434888698,0.016680761,-1.2827396072\H,0.5
 223667931,-0.9520214229,-0.1674068905\H,-0.7387022429,0.120089746,0.45
 9735491\H,2.2036635157,-1.7426086601,2.8650463572\H,0.5631893989,2.106
 5713931,-0.4591254557\H,1.8438615302,1.0097745782,-0.9476522152\H,0.93
 66730188,1.570313621,1.9188194662\H,2.3936598295,2.1605419386,1.140139
 3407\H,3.3598564732,0.3626846039,2.213770304\H,2.8249298723,-0.5063027
 3,0.7905853807\H,0.7205032675,-1.1988756788,2.0696350678\H,1.336105660
 7,-0.3268831654,3.4744584724\\Version=EM64M-G16RevA.03\State=1-A\HF=-1
 97.6464964\RMSD=6.581e-09\RMSF=4.991e-06\Dipole=0.0242283,0.0305713,-0
 .0166479\Quadrupole=0.0489195,-0.0730707,0.0241512,-0.1574382,0.059720
 3,0.1149723\PG=C01 [X(C5H12)]\\@


 NATURE REVEALS EVERY SECRET ONCE.
                    - RALPH WALDO EMERSON
 Job cpu time:       0 days  0 hours 28 minutes 12.2 seconds.
 Elapsed time:       0 days  0 hours  7 minutes 16.1 seconds.
 File lengths (MBytes):  RWF=     10 Int=      0 D2E=      0 Chk=      2 Scr=      1
 Normal termination of Gaussian 16 at Sat Sep 22 01:40:07 2018.
