 Entering Gaussian System, Link 0=g16
 Initial command:
 /Applications/g16/l1.exe "/var/folders/hc/gtglrcdn25lc_0x4jfkqf1nh0000gn/T/Gau-29208.inp" -scrdir="/var/folders/hc/gtglrcdn25lc_0x4jfkqf1nh0000gn/T/"
 Entering Link 1 = /Applications/g16/l1.exe PID=     29209.
  
 Copyright (c) 1988,1990,1992,1993,1995,1998,2003,2009,2016,
            Gaussian, Inc.  All Rights Reserved.
  
 This is part of the Gaussian(R) 16 program.  It is based on
 the Gaussian(R) 09 system (copyright 2009, Gaussian, Inc.),
 the Gaussian(R) 03 system (copyright 2003, Gaussian, Inc.),
 the Gaussian(R) 98 system (copyright 1998, Gaussian, Inc.),
 the Gaussian(R) 94 system (copyright 1995, Gaussian, Inc.),
 the Gaussian 92(TM) system (copyright 1992, Gaussian, Inc.),
 the Gaussian 90(TM) system (copyright 1990, Gaussian, Inc.),
 the Gaussian 88(TM) system (copyright 1988, Gaussian, Inc.),
 the Gaussian 86(TM) system (copyright 1986, Carnegie Mellon
 University), and the Gaussian 82(TM) system (copyright 1983,
 Carnegie Mellon University). Gaussian is a federally registered
 trademark of Gaussian, Inc.
  
 This software contains proprietary and confidential information,
 including trade secrets, belonging to Gaussian, Inc.
  
 This software is provided under written license and may be
 used, copied, transmitted, or stored only in accord with that
 written license.
  
 The following legend is applicable only to US Government
 contracts under FAR:
  
                    RESTRICTED RIGHTS LEGEND
  
 Use, reproduction and disclosure by the US Government is
 subject to restrictions as set forth in subparagraphs (a)
 and (c) of the Commercial Computer Software - Restricted
 Rights clause in FAR 52.227-19.
  
 Gaussian, Inc.
 340 Quinnipiac St., Bldg. 40, Wallingford CT 06492
  
  
 ---------------------------------------------------------------
 Warning -- This program may not be used in any manner that
 competes with the business of Gaussian, Inc. or will provide
 assistance to any competitor of Gaussian, Inc.  The licensee
 of this program is prohibited from giving any competitor of
 Gaussian, Inc. access to this program.  By using this program,
 the user acknowledges that Gaussian, Inc. is engaged in the
 business of creating and licensing software in the field of
 computational chemistry and represents and warrants to the
 licensee that it is not a competitor of Gaussian, Inc. and that
 it will not use this program in any manner prohibited above.
 ---------------------------------------------------------------
  

 Cite this work as:
 Gaussian 16, Revision A.03,
 M. J. Frisch, G. W. Trucks, H. B. Schlegel, G. E. Scuseria, 
 M. A. Robb, J. R. Cheeseman, G. Scalmani, V. Barone, 
 G. A. Petersson, H. Nakatsuji, X. Li, M. Caricato, A. V. Marenich, 
 J. Bloino, B. G. Janesko, R. Gomperts, B. Mennucci, H. P. Hratchian, 
 J. V. Ortiz, A. F. Izmaylov, J. L. Sonnenberg, D. Williams-Young, 
 F. Ding, F. Lipparini, F. Egidi, J. Goings, B. Peng, A. Petrone, 
 T. Henderson, D. Ranasinghe, V. G. Zakrzewski, J. Gao, N. Rega, 
 G. Zheng, W. Liang, M. Hada, M. Ehara, K. Toyota, R. Fukuda, 
 J. Hasegawa, M. Ishida, T. Nakajima, Y. Honda, O. Kitao, H. Nakai, 
 T. Vreven, K. Throssell, J. A. Montgomery, Jr., J. E. Peralta, 
 F. Ogliaro, M. J. Bearpark, J. J. Heyd, E. N. Brothers, K. N. Kudin, 
 V. N. Staroverov, T. A. Keith, R. Kobayashi, J. Normand, 
 K. Raghavachari, A. P. Rendell, J. C. Burant, S. S. Iyengar, 
 J. Tomasi, M. Cossi, J. M. Millam, M. Klene, C. Adamo, R. Cammi, 
 J. W. Ochterski, R. L. Martin, K. Morokuma, O. Farkas, 
 J. B. Foresman, and D. J. Fox, Gaussian, Inc., Wallingford CT, 2016.
 
 ******************************************
 Gaussian 16:  EM64M-G16RevA.03 25-Dec-2016
                22-Sep-2018 
 ******************************************
 %mem=1GB
 %nprocshared=4
 Will use up to    4 processors via shared memory.
 %chk=pentane_20.chk
 --------------------------------------------
 # opt=(maxcycles=160) M062X/6-31G(d) emp=GD3
 --------------------------------------------
 1/6=160,18=20,19=15,26=3,38=1/1,3;
 2/9=110,12=2,17=6,18=5,40=1/2;
 3/5=1,6=6,7=1,11=2,25=1,30=1,71=1,74=-55,124=31/1,2,3;
 4//1;
 5/5=2,38=5/2;
 6/7=2,8=2,9=2,10=2,28=1/1;
 7//1,2,3,16;
 1/6=160,18=20,19=15,26=3/3(2);
 2/9=110/2;
 99//99;
 2/9=110/2;
 3/5=1,6=6,7=1,11=2,25=1,30=1,71=1,74=-55,124=31/1,2,3;
 4/5=5,16=3,69=1/1;
 5/5=2,38=5/2;
 7//1,2,3,16;
 1/6=160,18=20,19=15,26=3/3(-5);
 2/9=110/2;
 6/7=2,8=2,9=2,10=2,19=2,28=1/1;
 99/9=1/99;
 ----------------------------
 Generated by prepare_file.py
 ----------------------------
 Symbolic Z-matrix:
 Charge =  0 Multiplicity = 1
 C                     0.        0.        0. 
 C                     1.171     0.975    -0.22 
 C                     1.752     1.396     1.143 
 C                     0.968     0.701     2.271 
 C                    -0.432     1.332     2.388 
 H                    -0.785     0.244    -0.653 
 H                     0.322    -0.981    -0.19 
 H                    -0.335     0.073     0.993 
 H                    -0.966     0.858     3.159 
 H                     0.828     1.825    -0.731 
 H                     1.917     0.503    -0.787 
 H                     1.671     2.438     1.252 
 H                     2.762     1.116     1.196 
 H                     1.481     0.817     3.179 
 H                     0.872    -0.321     2.052 
 H                    -0.948     1.212     1.481 
 H                    -0.338     2.355     2.606 
 

 GradGradGradGradGradGradGradGradGradGradGradGradGradGradGradGradGradGrad
 Berny optimization.
 Initialization pass.
                           ----------------------------
                           !    Initial Parameters    !
                           ! (Angstroms and Degrees)  !
 --------------------------                            --------------------------
 ! Name  Definition              Value          Derivative Info.                !
 --------------------------------------------------------------------------------
 ! R1    R(1,2)                  1.5396         estimate D2E/DX2                !
 ! R2    R(1,6)                  1.0498         estimate D2E/DX2                !
 ! R3    R(1,7)                  1.0498         estimate D2E/DX2                !
 ! R4    R(1,8)                  1.0505         estimate D2E/DX2                !
 ! R5    R(2,3)                  1.5403         estimate D2E/DX2                !
 ! R6    R(2,10)                 1.0494         estimate D2E/DX2                !
 ! R7    R(2,11)                 1.0492         estimate D2E/DX2                !
 ! R8    R(3,4)                  1.5395         estimate D2E/DX2                !
 ! R9    R(3,12)                 1.0508         estimate D2E/DX2                !
 ! R10   R(3,13)                 1.0494         estimate D2E/DX2                !
 ! R11   R(4,5)                  1.5401         estimate D2E/DX2                !
 ! R12   R(4,14)                 1.0493         estimate D2E/DX2                !
 ! R13   R(4,15)                 1.0496         estimate D2E/DX2                !
 ! R14   R(5,9)                  1.0508         estimate D2E/DX2                !
 ! R15   R(5,16)                 1.0504         estimate D2E/DX2                !
 ! R16   R(5,17)                 1.0502         estimate D2E/DX2                !
 ! A1    A(2,1,6)              109.4301         estimate D2E/DX2                !
 ! A2    A(2,1,7)              109.428          estimate D2E/DX2                !
 ! A3    A(2,1,8)              109.4882         estimate D2E/DX2                !
 ! A4    A(6,1,7)              109.5086         estimate D2E/DX2                !
 ! A5    A(6,1,8)              109.472          estimate D2E/DX2                !
 ! A6    A(7,1,8)              109.5003         estimate D2E/DX2                !
 ! A7    A(1,2,3)              109.4839         estimate D2E/DX2                !
 ! A8    A(1,2,10)             109.5077         estimate D2E/DX2                !
 ! A9    A(1,2,11)             109.459          estimate D2E/DX2                !
 ! A10   A(3,2,10)             109.438          estimate D2E/DX2                !
 ! A11   A(3,2,11)             109.4492         estimate D2E/DX2                !
 ! A12   A(10,2,11)            109.4895         estimate D2E/DX2                !
 ! A13   A(2,3,4)              109.4437         estimate D2E/DX2                !
 ! A14   A(2,3,12)             109.496          estimate D2E/DX2                !
 ! A15   A(2,3,13)             109.5596         estimate D2E/DX2                !
 ! A16   A(4,3,12)             109.4146         estimate D2E/DX2                !
 ! A17   A(4,3,13)             109.4307         estimate D2E/DX2                !
 ! A18   A(12,3,13)            109.4827         estimate D2E/DX2                !
 ! A19   A(3,4,5)              109.4895         estimate D2E/DX2                !
 ! A20   A(3,4,14)             109.5815         estimate D2E/DX2                !
 ! A21   A(3,4,15)             109.4675         estimate D2E/DX2                !
 ! A22   A(5,4,14)             109.4744         estimate D2E/DX2                !
 ! A23   A(5,4,15)             109.3691         estimate D2E/DX2                !
 ! A24   A(14,4,15)            109.4451         estimate D2E/DX2                !
 ! A25   A(4,5,9)              109.4431         estimate D2E/DX2                !
 ! A26   A(4,5,16)             109.5214         estimate D2E/DX2                !
 ! A27   A(4,5,17)             109.4823         estimate D2E/DX2                !
 ! A28   A(9,5,16)             109.4131         estimate D2E/DX2                !
 ! A29   A(9,5,17)             109.425          estimate D2E/DX2                !
 ! A30   A(16,5,17)            109.5424         estimate D2E/DX2                !
 ! D1    D(6,1,2,3)            137.7376         estimate D2E/DX2                !
 ! D2    D(6,1,2,10)            17.7482         estimate D2E/DX2                !
 ! D3    D(6,1,2,11)          -102.2891         estimate D2E/DX2                !
 ! D4    D(7,1,2,3)           -102.2681         estimate D2E/DX2                !
 ! D5    D(7,1,2,10)           137.7425         estimate D2E/DX2                !
 ! D6    D(7,1,2,11)            17.7052         estimate D2E/DX2                !
 ! D7    D(8,1,2,3)             17.7515         estimate D2E/DX2                !
 ! D8    D(8,1,2,10)          -102.2379         estimate D2E/DX2                !
 ! D9    D(8,1,2,11)           137.7248         estimate D2E/DX2                !
 ! D10   D(1,2,3,4)              0.0128         estimate D2E/DX2                !
 ! D11   D(1,2,3,12)          -119.9162         estimate D2E/DX2                !
 ! D12   D(1,2,3,13)           120.0003         estimate D2E/DX2                !
 ! D13   D(10,2,3,4)           120.0448         estimate D2E/DX2                !
 ! D14   D(10,2,3,12)            0.1159         estimate D2E/DX2                !
 ! D15   D(10,2,3,13)         -119.9676         estimate D2E/DX2                !
 ! D16   D(11,2,3,4)          -119.9666         estimate D2E/DX2                !
 ! D17   D(11,2,3,12)          120.1045         estimate D2E/DX2                !
 ! D18   D(11,2,3,13)            0.021          estimate D2E/DX2                !
 ! D19   D(2,3,4,5)            -71.9973         estimate D2E/DX2                !
 ! D20   D(2,3,4,14)           167.9199         estimate D2E/DX2                !
 ! D21   D(2,3,4,15)            47.8865         estimate D2E/DX2                !
 ! D22   D(12,3,4,5)            47.9816         estimate D2E/DX2                !
 ! D23   D(12,3,4,14)          -72.1012         estimate D2E/DX2                !
 ! D24   D(12,3,4,15)          167.8654         estimate D2E/DX2                !
 ! D25   D(13,3,4,5)           167.9362         estimate D2E/DX2                !
 ! D26   D(13,3,4,14)           47.8534         estimate D2E/DX2                !
 ! D27   D(13,3,4,15)          -72.18           estimate D2E/DX2                !
 ! D28   D(3,4,5,9)           -179.9216         estimate D2E/DX2                !
 ! D29   D(3,4,5,16)            60.1362         estimate D2E/DX2                !
 ! D30   D(3,4,5,17)           -59.9886         estimate D2E/DX2                !
 ! D31   D(14,4,5,9)           -59.7733         estimate D2E/DX2                !
 ! D32   D(14,4,5,16)         -179.7155         estimate D2E/DX2                !
 ! D33   D(14,4,5,17)           60.1597         estimate D2E/DX2                !
 ! D34   D(15,4,5,9)            60.1343         estimate D2E/DX2                !
 ! D35   D(15,4,5,16)          -59.808          estimate D2E/DX2                !
 ! D36   D(15,4,5,17)         -179.9328         estimate D2E/DX2                !
 --------------------------------------------------------------------------------
 Trust Radius=3.00D-01 FncErr=1.00D-07 GrdErr=1.00D-06 EigMax=2.50D+02 EigMin=1.00D-04
 Number of steps in this run=    102 maximum allowed number of steps=    102.
 GradGradGradGradGradGradGradGradGradGradGradGradGradGradGradGradGradGrad

                          Input orientation:                          
 ---------------------------------------------------------------------
 Center     Atomic      Atomic             Coordinates (Angstroms)
 Number     Number       Type             X           Y           Z
 ---------------------------------------------------------------------
      1          6           0        0.000000    0.000000    0.000000
      2          6           0        1.171000    0.975000   -0.220000
      3          6           0        1.752000    1.396000    1.143000
      4          6           0        0.968000    0.701000    2.271000
      5          6           0       -0.432000    1.332000    2.388000
      6          1           0       -0.785000    0.244000   -0.653000
      7          1           0        0.322000   -0.981000   -0.190000
      8          1           0       -0.335000    0.073000    0.993000
      9          1           0       -0.966000    0.858000    3.159000
     10          1           0        0.828000    1.825000   -0.731000
     11          1           0        1.917000    0.503000   -0.787000
     12          1           0        1.671000    2.438000    1.252000
     13          1           0        2.762000    1.116000    1.196000
     14          1           0        1.481000    0.817000    3.179000
     15          1           0        0.872000   -0.321000    2.052000
     16          1           0       -0.948000    1.212000    1.481000
     17          1           0       -0.338000    2.355000    2.606000
 ---------------------------------------------------------------------
                    Distance matrix (angstroms):
                    1          2          3          4          5
     1  C    0.000000
     2  C    1.539567   0.000000
     3  C    2.514909   1.540315   0.000000
     4  C    2.566294   2.514233   1.539502   0.000000
     5  C    2.768283   3.082000   2.514752   1.540081   0.000000
     6  H    1.049843   2.132554   3.314979   3.439714   3.249005
     7  H    1.049831   2.132519   3.077648   3.050076   3.544654
     8  H    1.050525   2.133778   2.475560   1.930149   1.881626
     9  H    3.413005   3.999762   3.426547   2.133905   1.050844
    10  H    2.133207   1.049414   2.133001   3.208579   3.399825
    11  H    2.132432   1.049185   2.132973   3.207985   4.035550
    12  H    3.209920   2.134749   1.050812   2.133012   2.633693
    13  H    3.210065   2.134530   1.049433   2.132202   3.416015
    14  H    3.600957   3.416762   2.134005   1.049328   2.133184
    15  H    2.252583   2.632679   2.132785   1.049600   2.132070
    16  H    2.135652   2.727587   2.727288   2.134544   1.050383
    17  H    3.528669   3.488231   2.725463   2.133911   1.050185
                    6          7          8          9         10
     6  H    0.000000
     7  H    1.714772   0.000000
     8  H    1.714951   1.715242   0.000000
     9  H    3.865372   4.031956   2.388711   0.000000
    10  H    2.259959   2.902129   2.719237   4.391540   0.000000
    11  H    2.717690   2.258913   2.902551   4.899860   1.713692
    12  H    3.804550   3.948256   3.111968   3.617571   2.240247
    13  H    4.093946   3.503142   3.274212   4.221127   2.820703
    14  H    4.488575   3.990770   2.937684   2.447425   4.090302
    15  H    3.222095   2.400971   1.653350   2.448210   3.514590
    16  H    2.348946   3.035521   1.382474   1.715029   2.902221
    17  H    3.908607   4.402512   2.794513   1.714993   3.574357
                   11         12         13         14         15
    11  H    0.000000
    12  H    2.821748   0.000000
    13  H    2.241000   1.714964   0.000000
    14  H    4.002230   2.525286   2.379633   0.000000
    15  H    3.135430   2.981691   2.523847   1.713492   0.000000
    16  H    3.722194   2.900806   3.722169   2.989861   2.447147
    17  H    4.475196   2.424105   3.623979   2.450007   2.988644
                   16         17
    16  H    0.000000
    17  H    1.715860   0.000000
 Stoichiometry    C5H12
 Framework group  C1[X(C5H12)]
 Deg. of freedom    45
 Full point group                 C1      NOp   1
 Largest Abelian subgroup         C1      NOp   1
 Largest concise Abelian subgroup C1      NOp   1
                         Standard orientation:                         
 ---------------------------------------------------------------------
 Center     Atomic      Atomic             Coordinates (Angstroms)
 Number     Number       Type             X           Y           Z
 ---------------------------------------------------------------------
      1          6           0        1.083089   -1.095239    0.246160
      2          6           0        1.375288    0.314244   -0.299958
      3          6           0        0.139460    1.210703   -0.095845
      4          6           0       -0.975936    0.398198    0.586645
      5          6           0       -1.561394   -0.613758   -0.415868
      6          1           0        1.458091   -1.813221   -0.421706
      7          1           0        1.546334   -1.210413    1.181191
      8          1           0        0.045553   -1.222422    0.350790
      9          1           0       -2.323536   -1.167008    0.050314
     10          1           0        1.597919    0.254198   -1.323726
     11          1           0        2.193367    0.725044    0.212662
     12          1           0       -0.200724    1.556551   -1.027977
     13          1           0        0.395214    2.029216    0.509081
     14          1           0       -1.734072    1.046357    0.912542
     15          1           0       -0.579157   -0.117486    1.410233
     16          1           0       -0.804106   -1.266043   -0.738893
     17          1           0       -1.957924   -0.099657   -1.241309
 ---------------------------------------------------------------------
 Rotational constants (GHZ):           6.7309202           4.1729558           3.1515212
 Standard basis: 6-31G(d) (6D, 7F)
 There are    99 symmetry adapted cartesian basis functions of A   symmetry.
 There are    99 symmetry adapted basis functions of A   symmetry.
    99 basis functions,   188 primitive gaussians,    99 cartesian basis functions
    21 alpha electrons       21 beta electrons
       nuclear repulsion energy       200.8826441407 Hartrees.
 NAtoms=   17 NActive=   17 NUniq=   17 SFac= 1.00D+00 NAtFMM=   60 NAOKFM=F Big=F
 Integral buffers will be    131072 words long.
 Raffenetti 2 integral format.
 Two-electron integral symmetry is turned on.
 Nuclear repulsion after empirical dispersion term =      200.8824126399 Hartrees.
 One-electron integrals computed using PRISM.
 NBasis=    99 RedAO= T EigKep=  3.30D-03  NBF=    99
 NBsUse=    99 1.00D-06 EigRej= -1.00D+00 NBFU=    99
 ExpMin= 1.61D-01 ExpMax= 3.05D+03 ExpMxC= 4.57D+02 IAcc=3 IRadAn=         5 AccDes= 0.00D+00
 Harris functional with IExCor= 1009 and IRadAn=       5 diagonalized for initial guess.
 HarFok:  IExCor= 1009 AccDes= 0.00D+00 IRadAn=         5 IDoV= 1 UseB2=F ITyADJ=14
 ICtDFT=  3500011 ScaDFX=  1.000000  1.000000  1.000000  1.000000
 FoFCou: FMM=F IPFlag=           0 FMFlag=      100000 FMFlg1=           0
         NFxFlg=           0 DoJE=T BraDBF=F KetDBF=T FulRan=T
         wScrn=  0.000000 ICntrl=       500 IOpCl=  0 I1Cent=   200000004 NGrid=           0
         NMat0=    1 NMatS0=      1 NMatT0=    0 NMatD0=    1 NMtDS0=    0 NMtDT0=    0
 Petite list used in FoFCou.
 Keep R1 ints in memory in canonical form, NReq=15944043.
 Requested convergence on RMS density matrix=1.00D-08 within 128 cycles.
 Requested convergence on MAX density matrix=1.00D-06.
 Requested convergence on             energy=1.00D-06.
 No special actions if energy rises.
 Integral accuracy reduced to 1.0D-05 until final iterations.
 Initial convergence to 1.0D-05 achieved.  Increase integral accuracy.
 SCF Done:  E(RM062X) =  -197.581012491     A.U. after   12 cycles
            NFock= 12  Conv=0.37D-08     -V/T= 2.0039

 **********************************************************************

            Population analysis using the SCF density.

 **********************************************************************

 Orbital symmetries:
       Occupied  (A) (A) (A) (A) (A) (A) (A) (A) (A) (A) (A) (A)
                 (A) (A) (A) (A) (A) (A) (A) (A) (A)
       Virtual   (A) (A) (A) (A) (A) (A) (A) (A) (A) (A) (A) (A)
                 (A) (A) (A) (A) (A) (A) (A) (A) (A) (A) (A) (A)
                 (A) (A) (A) (A) (A) (A) (A) (A) (A) (A) (A) (A)
                 (A) (A) (A) (A) (A) (A) (A) (A) (A) (A) (A) (A)
                 (A) (A) (A) (A) (A) (A) (A) (A) (A) (A) (A) (A)
                 (A) (A) (A) (A) (A) (A) (A) (A) (A) (A) (A) (A)
                 (A) (A) (A) (A) (A) (A)
 The electronic state is 1-A.
 Alpha  occ. eigenvalues --  -10.52157 -10.51927 -10.51888 -10.51131 -10.49778
 Alpha  occ. eigenvalues --   -0.91801  -0.83126  -0.78417  -0.70556  -0.64066
 Alpha  occ. eigenvalues --   -0.56924  -0.54326  -0.49956  -0.46942  -0.45079
 Alpha  occ. eigenvalues --   -0.42158  -0.41456  -0.40774  -0.37319  -0.37182
 Alpha  occ. eigenvalues --   -0.35577
 Alpha virt. eigenvalues --    0.13764   0.17317   0.18177   0.18676   0.21093
 Alpha virt. eigenvalues --    0.22252   0.22980   0.24633   0.24912   0.25303
 Alpha virt. eigenvalues --    0.27963   0.28282   0.29840   0.32163   0.33951
 Alpha virt. eigenvalues --    0.37881   0.54977   0.56758   0.58064   0.61912
 Alpha virt. eigenvalues --    0.64885   0.67301   0.70962   0.73005   0.74165
 Alpha virt. eigenvalues --    0.76016   0.78022   0.81009   0.84714   0.88743
 Alpha virt. eigenvalues --    0.92670   0.97189   0.97422   0.98677   1.00720
 Alpha virt. eigenvalues --    1.01830   1.03310   1.04865   1.06097   1.08938
 Alpha virt. eigenvalues --    1.09689   1.12110   1.16096   1.19047   1.28796
 Alpha virt. eigenvalues --    1.45131   1.49808   1.53866   1.57932   1.72580
 Alpha virt. eigenvalues --    1.80170   1.85709   1.90347   1.92213   1.99585
 Alpha virt. eigenvalues --    2.00806   2.07693   2.10461   2.12505   2.16065
 Alpha virt. eigenvalues --    2.23557   2.27605   2.34306   2.40328   2.42028
 Alpha virt. eigenvalues --    2.44162   2.46308   2.53177   2.58151   2.64664
 Alpha virt. eigenvalues --    2.67702   2.69099   2.80007   4.20010   4.31069
 Alpha virt. eigenvalues --    4.39623   4.48828   4.64334
          Condensed to atoms (all electrons):
               1          2          3          4          5          6
     1  C    5.169890   0.371849  -0.061543  -0.028788  -0.055881   0.388049
     2  C    0.371849   5.048250   0.351720  -0.053247   0.000021  -0.036074
     3  C   -0.061543   0.351720   5.052753   0.388262  -0.054571   0.005663
     4  C   -0.028788  -0.053247   0.388262   5.089306   0.369888   0.001780
     5  C   -0.055881   0.000021  -0.054571   0.369888   5.194212  -0.001024
     6  H    0.388049  -0.036074   0.005663   0.001780  -0.001024   0.549034
     7  H    0.386910  -0.034270   0.002967  -0.002729   0.003069  -0.025718
     8  H    0.427782  -0.051346  -0.023866  -0.007726  -0.038804  -0.035515
     9  H    0.000979   0.000011   0.005134  -0.034317   0.382359   0.000060
    10  H   -0.039615   0.398999  -0.036658   0.002394   0.000743  -0.008293
    11  H   -0.036247   0.400537  -0.035214   0.002554  -0.000278   0.002540
    12  H    0.002863  -0.038243   0.393438  -0.040968  -0.008474  -0.000096
    13  H    0.003417  -0.035729   0.392144  -0.036443   0.005428  -0.000159
    14  H    0.002329   0.005547  -0.035336   0.384749  -0.031641  -0.000079
    15  H   -0.009301  -0.010714  -0.037705   0.402856  -0.050334   0.001097
    16  H   -0.020598   0.003186  -0.000046  -0.056376   0.412871   0.001322
    17  H    0.002576  -0.000767  -0.006380  -0.032553   0.377821   0.000024
               7          8          9         10         11         12
     1  C    0.386910   0.427782   0.000979  -0.039615  -0.036247   0.002863
     2  C   -0.034270  -0.051346   0.000011   0.398999   0.400537  -0.038243
     3  C    0.002967  -0.023866   0.005134  -0.036658  -0.035214   0.393438
     4  C   -0.002729  -0.007726  -0.034317   0.002394   0.002554  -0.040968
     5  C    0.003069  -0.038804   0.382359   0.000743  -0.000278  -0.008474
     6  H   -0.025718  -0.035515   0.000060  -0.008293   0.002540  -0.000096
     7  H    0.545608  -0.030150  -0.000117   0.004438  -0.010066  -0.000202
     8  H   -0.030150   0.607602   0.002496   0.002542   0.004899   0.000896
     9  H   -0.000117   0.002496   0.532045  -0.000003   0.000002   0.000144
    10  H    0.004438   0.002542  -0.000003   0.551910  -0.031382  -0.010116
    11  H   -0.010066   0.004899   0.000002  -0.031382   0.542146   0.003884
    12  H   -0.000202   0.000896   0.000144  -0.010116   0.003884   0.563524
    13  H    0.000130   0.000506  -0.000186   0.003852  -0.010365  -0.032306
    14  H   -0.000031   0.000999  -0.002864  -0.000150  -0.000148  -0.001316
    15  H   -0.000450  -0.009485  -0.002170   0.000143   0.000530   0.005572
    16  H    0.001391  -0.019709  -0.028563  -0.000941  -0.000061  -0.000258
    17  H   -0.000075   0.001134  -0.024055   0.000021   0.000023   0.005839
              13         14         15         16         17
     1  C    0.003417   0.002329  -0.009301  -0.020598   0.002576
     2  C   -0.035729   0.005547  -0.010714   0.003186  -0.000767
     3  C    0.392144  -0.035336  -0.037705  -0.000046  -0.006380
     4  C   -0.036443   0.384749   0.402856  -0.056376  -0.032553
     5  C    0.005428  -0.031641  -0.050334   0.412871   0.377821
     6  H   -0.000159  -0.000079   0.001097   0.001322   0.000024
     7  H    0.000130  -0.000031  -0.000450   0.001391  -0.000075
     8  H    0.000506   0.000999  -0.009485  -0.019709   0.001134
     9  H   -0.000186  -0.002864  -0.002170  -0.028563  -0.024055
    10  H    0.003852  -0.000150   0.000143  -0.000941   0.000021
    11  H   -0.010365  -0.000148   0.000530  -0.000061   0.000023
    12  H   -0.032306  -0.001316   0.005572  -0.000258   0.005839
    13  H    0.556279  -0.003387  -0.001928  -0.000128   0.000036
    14  H   -0.003387   0.552900  -0.031344   0.005039  -0.002585
    15  H   -0.001928  -0.031344   0.566283  -0.004295   0.005305
    16  H   -0.000128   0.005039  -0.004295   0.545805  -0.026108
    17  H    0.000036  -0.002585   0.005305  -0.026108   0.538160
 Mulliken charges:
               1
     1  C   -0.504672
     2  C   -0.319729
     3  C   -0.300762
     4  C   -0.348641
     5  C   -0.505403
     6  H    0.157389
     7  H    0.159294
     8  H    0.167747
     9  H    0.169045
    10  H    0.162116
    11  H    0.166647
    12  H    0.155819
    13  H    0.158839
    14  H    0.157318
    15  H    0.175941
    16  H    0.187470
    17  H    0.161582
 Sum of Mulliken charges =   0.00000
 Mulliken charges with hydrogens summed into heavy atoms:
               1
     1  C   -0.020242
     2  C    0.009034
     3  C    0.013896
     4  C   -0.015382
     5  C    0.012694
 Electronic spatial extent (au):  <R**2>=            488.7673
 Charge=              0.0000 electrons
 Dipole moment (field-independent basis, Debye):
    X=             -0.1160    Y=              0.1143    Z=              0.0188  Tot=              0.1639
 Quadrupole moment (field-independent basis, Debye-Ang):
   XX=            -34.9206   YY=            -35.0992   ZZ=            -34.1253
   XY=              0.2903   XZ=              0.0154   YZ=              0.1529
 Traceless Quadrupole moment (field-independent basis, Debye-Ang):
   XX=             -0.2055   YY=             -0.3841   ZZ=              0.5897
   XY=              0.2903   XZ=              0.0154   YZ=              0.1529
 Octapole moment (field-independent basis, Debye-Ang**2):
  XXX=             -0.6186  YYY=              1.0629  ZZZ=             -0.6215  XYY=             -0.5338
  XXY=              1.0616  XXZ=              1.1326  XZZ=              0.8864  YZZ=              0.4362
  YYZ=              0.1014  XYZ=              1.3801
 Hexadecapole moment (field-independent basis, Debye-Ang**3):
 XXXX=           -350.3539 YYYY=           -220.1362 ZZZZ=            -97.7825 XXXY=              1.4836
 XXXZ=              0.1633 YYYX=              1.2102 YYYZ=              3.1907 ZZZX=              0.7218
 ZZZY=             -1.5739 XXYY=            -93.9253 XXZZ=            -73.3149 YYZZ=            -51.9906
 XXYZ=              0.0682 YYXZ=             -1.3300 ZZXY=             -1.2502
 N-N= 2.008824126399D+02 E-N=-8.584912049197D+02  KE= 1.968073560779D+02
 Calling FoFJK, ICntrl=      2127 FMM=F ISym2X=0 I1Cent= 0 IOpClX= 0 NMat=1 NMatS=1 NMatT=0.
 ***** Axes restored to original set *****
 -------------------------------------------------------------------
 Center     Atomic                   Forces (Hartrees/Bohr)
 Number     Number              X              Y              Z
 -------------------------------------------------------------------
      1        6           0.022846989    0.008363249   -0.025195322
      2        6          -0.018533733   -0.012101030    0.036651883
      3        6          -0.028037954   -0.030771724    0.000691380
      4        6          -0.004353293    0.045572755   -0.011001206
      5        6           0.032237611   -0.005775142    0.013751515
      6        1          -0.026836906    0.002712873   -0.021252093
      7        1           0.006275598   -0.032572349   -0.007282475
      8        1          -0.011417391   -0.023977707   -0.013289806
      9        1          -0.020107730   -0.012505942    0.023850459
     10        1          -0.008048438    0.025428320   -0.018985179
     11        1           0.021887468   -0.011413637   -0.021187684
     12        1           0.001176474    0.032202194    0.006634114
     13        1           0.033213026   -0.005396698    0.003182208
     14        1           0.015665396    0.002578047    0.030577647
     15        1           0.005802257   -0.031042626    0.003862472
     16        1          -0.023387984    0.016216496   -0.009720258
     17        1           0.001618611    0.032482920    0.008712345
 -------------------------------------------------------------------
 Cartesian Forces:  Max     0.045572755 RMS     0.020392411

 GradGradGradGradGradGradGradGradGradGradGradGradGradGradGradGradGradGrad
 Berny optimization.
 FormGI is forming the generalized inverse of G from B-inverse, IUseBI=4.
 Internal  Forces:  Max     0.171933178 RMS     0.037877563
 Search for a local minimum.
 Step number   1 out of a maximum of  102
 All quantities printed in internal units (Hartrees-Bohrs-Radians)
 Mixed Optimization -- RFO/linear search
 Second derivative matrix not updated -- first step.
 ITU=  0
     Eigenvalues ---    0.00233   0.00236   0.00243   0.00243   0.03839
     Eigenvalues ---    0.03840   0.03844   0.04897   0.04897   0.04898
     Eigenvalues ---    0.05710   0.05723   0.05725   0.05730   0.07651
     Eigenvalues ---    0.07657   0.07660   0.11697   0.11702   0.11705
     Eigenvalues ---    0.16000   0.16000   0.16000   0.16000   0.16000
     Eigenvalues ---    0.16000   0.21947   0.21947   0.21949   0.28491
     Eigenvalues ---    0.28512   0.28557   0.28563   0.39760   0.39764
     Eigenvalues ---    0.39804   0.39824   0.39851   0.39898   0.39900
     Eigenvalues ---    0.39932   0.39955   0.39958   0.39970   0.39990
 RFO step:  Lambda=-2.55977412D-01 EMin= 2.32654356D-03
 Linear search not attempted -- first point.
 Maximum step size (   0.300) exceeded in Quadratic search.
    -- Step size scaled by   0.446
 Iteration  1 RMS(Cart)=  0.23215696 RMS(Int)=  0.01069714
 Iteration  2 RMS(Cart)=  0.03094189 RMS(Int)=  0.00083457
 Iteration  3 RMS(Cart)=  0.00056209 RMS(Int)=  0.00080571
 Iteration  4 RMS(Cart)=  0.00000068 RMS(Int)=  0.00080571
 Variable       Old X    -DE/DX   Delta X   Delta X   Delta X     New X
                                 (Linear)    (Quad)   (Total)
    R1        2.90936   0.02616   0.00000   0.02153   0.02153   2.93089
    R2        1.98392   0.03392   0.00000   0.02308   0.02308   2.00699
    R3        1.98389   0.03368   0.00000   0.02291   0.02291   2.00681
    R4        1.98520  -0.01059   0.00000  -0.00721  -0.00721   1.97799
    R5        2.91077   0.07954   0.00000   0.06553   0.06553   2.97630
    R6        1.98311   0.03247   0.00000   0.02207   0.02207   2.00518
    R7        1.98267   0.03215   0.00000   0.02184   0.02184   2.00451
    R8        2.90924   0.01873   0.00000   0.01541   0.01541   2.92465
    R9        1.98575   0.03253   0.00000   0.02218   0.02218   2.00793
   R10        1.98314   0.03356   0.00000   0.02282   0.02282   2.00596
   R11        2.91033   0.02400   0.00000   0.01977   0.01977   2.93010
   R12        1.98294   0.03440   0.00000   0.02338   0.02338   2.00632
   R13        1.98346   0.02889   0.00000   0.01965   0.01965   2.00310
   R14        1.98581   0.03336   0.00000   0.02274   0.02274   2.00855
   R15        1.98494   0.01803   0.00000   0.01228   0.01228   1.99722
   R16        1.98456   0.03359   0.00000   0.02287   0.02287   2.00743
    A1        1.90992  -0.00014   0.00000  -0.00030  -0.00043   1.90949
    A2        1.90988  -0.00326   0.00000  -0.00430  -0.00434   1.90554
    A3        1.91093   0.03867   0.00000   0.04239   0.04225   1.95318
    A4        1.91129  -0.00516   0.00000  -0.00745  -0.00747   1.90382
    A5        1.91065  -0.01353   0.00000  -0.01289  -0.01310   1.89755
    A6        1.91114  -0.01656   0.00000  -0.01742  -0.01748   1.89366
    A7        1.91085   0.17193   0.00000   0.16441   0.16506   2.07591
    A8        1.91127  -0.03344   0.00000  -0.02338  -0.02419   1.88708
    A9        1.91042  -0.06519   0.00000  -0.06562  -0.06484   1.84558
   A10        1.91005  -0.05135   0.00000  -0.04467  -0.04648   1.86358
   A11        1.91025  -0.04653   0.00000  -0.04324  -0.04156   1.86868
   A12        1.91095   0.02461   0.00000   0.01254   0.00977   1.92073
   A13        1.91015   0.17009   0.00000   0.16261   0.16329   2.07344
   A14        1.91107  -0.02696   0.00000  -0.01727  -0.01640   1.89466
   A15        1.91218  -0.06806   0.00000  -0.06743  -0.06788   1.84429
   A16        1.90964  -0.06692   0.00000  -0.06523  -0.06662   1.84302
   A17        1.90993  -0.03279   0.00000  -0.02550  -0.02432   1.88561
   A18        1.91083   0.02467   0.00000   0.01286   0.01026   1.92109
   A19        1.91095   0.02820   0.00000   0.02746   0.02722   1.93817
   A20        1.91256  -0.00523   0.00000  -0.00726  -0.00704   1.90551
   A21        1.91057  -0.00964   0.00000  -0.00573  -0.00647   1.90410
   A22        1.91069  -0.03057   0.00000  -0.03743  -0.03718   1.87351
   A23        1.90885   0.01662   0.00000   0.02574   0.02555   1.93440
   A24        1.91018   0.00066   0.00000  -0.00273  -0.00255   1.90763
   A25        1.91014   0.00118   0.00000   0.00134   0.00123   1.91137
   A26        1.91151   0.03214   0.00000   0.03516   0.03507   1.94658
   A27        1.91083  -0.00566   0.00000  -0.00686  -0.00685   1.90397
   A28        1.90962  -0.01096   0.00000  -0.01014  -0.01033   1.89929
   A29        1.90983  -0.00294   0.00000  -0.00460  -0.00462   1.90521
   A30        1.91187  -0.01379   0.00000  -0.01491  -0.01489   1.89698
    D1        2.40397   0.00854   0.00000   0.01340   0.01447   2.41844
    D2        0.30976  -0.01348   0.00000  -0.01835  -0.01834   0.29142
    D3       -1.78528   0.01687   0.00000   0.02088   0.01996  -1.76532
    D4       -1.78492   0.00015   0.00000   0.00147   0.00247  -1.78244
    D5        2.40406  -0.02187   0.00000  -0.03028  -0.03034   2.37372
    D6        0.30901   0.00848   0.00000   0.00895   0.00796   0.31698
    D7        0.30982   0.00154   0.00000   0.00344   0.00442   0.31424
    D8       -1.78439  -0.02048   0.00000  -0.02831  -0.02839  -1.81278
    D9        2.40375   0.00987   0.00000   0.01092   0.00991   2.41366
   D10        0.00022  -0.02977   0.00000  -0.04400  -0.04242  -0.04220
   D11       -2.09293  -0.03542   0.00000  -0.05306  -0.05315  -2.14608
   D12        2.09440  -0.00722   0.00000  -0.01672  -0.01754   2.07686
   D13        2.09518   0.00307   0.00000   0.00064   0.00138   2.09655
   D14        0.00202  -0.00259   0.00000  -0.00842  -0.00935  -0.00733
   D15       -2.09383   0.02561   0.00000   0.02792   0.02625  -2.06758
   D16       -2.09381  -0.02665   0.00000  -0.03775  -0.03600  -2.12981
   D17        2.09622  -0.03230   0.00000  -0.04681  -0.04673   2.04949
   D18        0.00037  -0.00410   0.00000  -0.01048  -0.01112  -0.01075
   D19       -1.25659  -0.04290   0.00000  -0.06392  -0.06272  -1.31931
   D20        2.93076  -0.01956   0.00000  -0.03046  -0.02928   2.90147
   D21        0.83578  -0.01122   0.00000  -0.01913  -0.01801   0.81777
   D22        0.83744  -0.01293   0.00000  -0.02563  -0.02676   0.81068
   D23       -1.25840   0.01041   0.00000   0.00783   0.00668  -1.25172
   D24        2.92980   0.01875   0.00000   0.01916   0.01795   2.94775
   D25        2.93104  -0.04359   0.00000  -0.06526  -0.06523   2.86581
   D26        0.83520  -0.02025   0.00000  -0.03181  -0.03179   0.80341
   D27       -1.25978  -0.01191   0.00000  -0.02048  -0.02052  -1.28030
   D28       -3.14022   0.01009   0.00000   0.01609   0.01641  -3.12381
   D29        1.04957   0.00313   0.00000   0.00619   0.00641   1.05598
   D30       -1.04700   0.00376   0.00000   0.00708   0.00737  -1.03963
   D31       -1.04324   0.00221   0.00000   0.00106   0.00111  -1.04213
   D32       -3.13663  -0.00475   0.00000  -0.00884  -0.00890   3.13766
   D33        1.04998  -0.00412   0.00000  -0.00795  -0.00794   1.04204
   D34        1.04954  -0.00545   0.00000  -0.00936  -0.00959   1.03995
   D35       -1.04385  -0.01241   0.00000  -0.01927  -0.01959  -1.06344
   D36       -3.14042  -0.01179   0.00000  -0.01837  -0.01864   3.12413
         Item               Value     Threshold  Converged?
 Maximum Force            0.171933     0.000450     NO 
 RMS     Force            0.037878     0.000300     NO 
 Maximum Displacement     0.871417     0.001800     NO 
 RMS     Displacement     0.257589     0.001200     NO 
 Predicted change in Energy=-1.033039D-01
 GradGradGradGradGradGradGradGradGradGradGradGradGradGradGradGradGradGrad

                          Input orientation:                          
 ---------------------------------------------------------------------
 Center     Atomic      Atomic             Coordinates (Angstroms)
 Number     Number       Type             X           Y           Z
 ---------------------------------------------------------------------
      1          6           0        0.006266   -0.127491   -0.351833
      2          6           0        1.152247    0.913240   -0.256546
      3          6           0        1.665177    1.354004    1.165858
      4          6           0        0.969435    0.775655    2.421524
      5          6           0       -0.406655    1.450516    2.656292
      6          1           0       -0.673129    0.164533   -1.114134
      7          1           0        0.415970   -1.076133   -0.596725
      8          1           0       -0.517924   -0.214894    0.549933
      9          1           0       -0.854301    1.048626    3.532541
     10          1           0        0.839255    1.795477   -0.756161
     11          1           0        1.976845    0.480691   -0.764595
     12          1           0        1.570668    2.409196    1.247377
     13          1           0        2.689124    1.076241    1.200157
     14          1           0        1.568973    0.974075    3.274983
     15          1           0        0.860504   -0.272370    2.305890
     16          1           0       -1.058708    1.296450    1.838925
     17          1           0       -0.263746    2.495186    2.785516
 ---------------------------------------------------------------------
                    Distance matrix (angstroms):
                    1          2          3          4          5
     1  C    0.000000
     2  C    1.550959   0.000000
     3  C    2.692619   1.574992   0.000000
     4  C    3.071625   2.687826   1.547657   0.000000
     5  C    3.421904   3.347158   2.554055   1.550541   0.000000
     6  H    1.062054   2.151283   3.475755   3.946183   3.992602
     7  H    1.061956   2.148355   3.251581   3.584030   4.200332
     8  H    1.046707   2.170845   2.758031   2.587717   2.687512
     9  H    4.148758   4.289725   3.470189   2.152878   1.062880
    10  H    2.134282   1.061095   2.138037   3.339860   3.649127
    11  H    2.103198   1.060742   2.141602   3.354584   4.280667
    12  H    3.382249   2.162116   1.062548   2.099657   2.610348
    13  H    3.324961   2.123803   1.061507   2.130592   3.441549
    14  H    4.099914   3.556551   2.145229   1.061700   2.124354
    15  H    2.795390   2.838461   2.142956   1.059997   2.167213
    16  H    2.821560   3.070207   2.806400   2.173480   1.056882
    17  H    4.098085   3.709681   2.765200   2.147094   1.062288
                    6          7          8          9         10
     6  H    0.000000
     7  H    1.730058   0.000000
     8  H    1.713817   1.711349   0.000000
     9  H    4.733501   4.814461   3.256622   0.000000
    10  H    2.252872   2.907015   2.754889   4.671069   0.000000
    11  H    2.691560   2.210930   2.904427   5.177192   1.738633
    12  H    3.955992   4.108718   3.425565   3.599111   2.219410
    13  H    4.182331   3.609532   3.517809   4.242244   2.786843
    14  H    4.994669   4.530219   3.632449   2.438063   4.178194
    15  H    3.773523   3.044473   2.233104   2.488023   3.694942
    16  H    3.185979   3.706240   2.058667   1.723814   3.253577
    17  H    4.561448   4.965470   3.522353   1.731859   3.774875
                   11         12         13         14         15
    11  H    0.000000
    12  H    2.816407   0.000000
    13  H    2.173079   1.740674   0.000000
    14  H    4.089985   2.484102   2.360101   0.000000
    15  H    3.352789   2.969104   2.526904   1.730518   0.000000
    16  H    4.081466   2.915776   3.808249   3.011793   2.522425
    17  H    4.656364   2.395483   3.639534   2.431504   3.025449
                   16         17
    16  H    0.000000
    17  H    1.721908   0.000000
 Stoichiometry    C5H12
 Framework group  C1[X(C5H12)]
 Deg. of freedom    45
 Full point group                 C1      NOp   1
 Largest Abelian subgroup         C1      NOp   1
 Largest concise Abelian subgroup C1      NOp   1
                         Standard orientation:                         
 ---------------------------------------------------------------------
 Center     Atomic      Atomic             Coordinates (Angstroms)
 Number     Number       Type             X           Y           Z
 ---------------------------------------------------------------------
      1          6           0        1.614838   -0.959139    0.215488
      2          6           0        1.360998    0.476430   -0.313832
      3          6           0       -0.054274    1.131157   -0.092611
      4          6           0       -1.161888    0.297833    0.595867
      5          6           0       -1.749600   -0.758000   -0.375724
      6          1           0        2.169832   -1.507839   -0.504837
      7          1           0        2.173884   -0.904901    1.116752
      8          1           0        0.720762   -1.467704    0.409359
      9          1           0       -2.518401   -1.303389    0.115405
     10          1           0        1.539446    0.478883   -1.359812
     11          1           0        2.069904    1.093885    0.177469
     12          1           0       -0.450879    1.407026   -1.038978
     13          1           0        0.119334    1.997226    0.496101
     14          1           0       -1.956148    0.941829    0.881574
     15          1           0       -0.759872   -0.167055    1.459496
     16          1           0       -1.008932   -1.435475   -0.706539
     17          1           0       -2.159377   -0.262166   -1.221116
 ---------------------------------------------------------------------
 Rotational constants (GHZ):           6.9962732           3.2054799           2.5972265
 Standard basis: 6-31G(d) (6D, 7F)
 There are    99 symmetry adapted cartesian basis functions of A   symmetry.
 There are    99 symmetry adapted basis functions of A   symmetry.
    99 basis functions,   188 primitive gaussians,    99 cartesian basis functions
    21 alpha electrons       21 beta electrons
       nuclear repulsion energy       191.5648718264 Hartrees.
 NAtoms=   17 NActive=   17 NUniq=   17 SFac= 1.00D+00 NAtFMM=   60 NAOKFM=F Big=F
 Integral buffers will be    131072 words long.
 Raffenetti 2 integral format.
 Two-electron integral symmetry is turned on.
 Nuclear repulsion after empirical dispersion term =      191.5645738943 Hartrees.
 One-electron integrals computed using PRISM.
 NBasis=    99 RedAO= T EigKep=  4.13D-03  NBF=    99
 NBsUse=    99 1.00D-06 EigRej= -1.00D+00 NBFU=    99
 Initial guess from the checkpoint file:  "pentane_20.chk"
 B after Tr=    -0.000000    0.000000    0.000000
         Rot=    0.997399    0.001863   -0.016064   -0.070242 Ang=   8.27 deg.
 ExpMin= 1.61D-01 ExpMax= 3.05D+03 ExpMxC= 4.57D+02 IAcc=2 IRadAn=         4 AccDes= 0.00D+00
 Harris functional with IExCor= 1009 and IRadAn=       4 diagonalized for initial guess.
 HarFok:  IExCor= 1009 AccDes= 0.00D+00 IRadAn=         4 IDoV= 1 UseB2=F ITyADJ=14
 ICtDFT=  3500011 ScaDFX=  1.000000  1.000000  1.000000  1.000000
 FoFCou: FMM=F IPFlag=           0 FMFlag=      100000 FMFlg1=           0
         NFxFlg=           0 DoJE=T BraDBF=F KetDBF=T FulRan=T
         wScrn=  0.000000 ICntrl=       500 IOpCl=  0 I1Cent=   200000004 NGrid=           0
         NMat0=    1 NMatS0=      1 NMatT0=    0 NMatD0=    1 NMtDS0=    0 NMtDT0=    0
 Petite list used in FoFCou.
 Keep R1 ints in memory in canonical form, NReq=15944043.
 Requested convergence on RMS density matrix=1.00D-08 within 128 cycles.
 Requested convergence on MAX density matrix=1.00D-06.
 Requested convergence on             energy=1.00D-06.
 No special actions if energy rises.
 Integral accuracy reduced to 1.0D-05 until final iterations.
 Initial convergence to 1.0D-05 achieved.  Increase integral accuracy.
 SCF Done:  E(RM062X) =  -197.623403343     A.U. after   13 cycles
            NFock= 13  Conv=0.33D-08     -V/T= 2.0067
 Calling FoFJK, ICntrl=      2127 FMM=F ISym2X=0 I1Cent= 0 IOpClX= 0 NMat=1 NMatS=1 NMatT=0.
 ***** Axes restored to original set *****
 -------------------------------------------------------------------
 Center     Atomic                   Forces (Hartrees/Bohr)
 Number     Number              X              Y              Z
 -------------------------------------------------------------------
      1        6           0.028829667    0.020615266   -0.003657719
      2        6          -0.016734693   -0.009970088    0.032767232
      3        6          -0.024217471   -0.026658933   -0.002013294
      4        6          -0.021167592    0.028687623   -0.029148180
      5        6           0.032251146   -0.018696334    0.000311348
      6        1          -0.015187711    0.002982230   -0.016225756
      7        1           0.004857246   -0.021788650   -0.004706918
      8        1          -0.019065647   -0.004359697    0.027960445
      9        1          -0.011910232   -0.006463015    0.018510827
     10        1          -0.003004147    0.017803077   -0.014828502
     11        1           0.018885085   -0.001785024   -0.015283938
     12        1           0.004650901    0.023925430   -0.000394703
     13        1           0.024293055   -0.000187047    0.004243277
     14        1           0.015802591    0.001458394    0.017981667
     15        1          -0.002755430   -0.026050616    0.001401141
     16        1          -0.017097507   -0.002625313   -0.020365910
     17        1           0.001570739    0.023112697    0.003448981
 -------------------------------------------------------------------
 Cartesian Forces:  Max     0.032767232 RMS     0.017215968

 GradGradGradGradGradGradGradGradGradGradGradGradGradGradGradGradGradGrad
 Berny optimization.
 Using GEDIIS/GDIIS optimizer.
 FormGI is forming the generalized inverse of G from B-inverse, IUseBI=4.
 Internal  Forces:  Max     0.034000221 RMS     0.009828744
 Search for a local minimum.
 Step number   2 out of a maximum of  102
 All quantities printed in internal units (Hartrees-Bohrs-Radians)
 Mixed Optimization -- RFO/linear search
 Update second derivatives using D2CorX and points    1    2
 DE= -4.24D-02 DEPred=-1.03D-01 R= 4.10D-01
 Trust test= 4.10D-01 RLast= 3.40D-01 DXMaxT set to 3.00D-01
 ITU=  0  0
 Use linear search instead of GDIIS.
     Eigenvalues ---    0.00235   0.00236   0.00243   0.00258   0.03024
     Eigenvalues ---    0.03056   0.03787   0.04717   0.04862   0.04923
     Eigenvalues ---    0.05457   0.05498   0.05729   0.05754   0.07912
     Eigenvalues ---    0.09139   0.09165   0.11972   0.12793   0.12962
     Eigenvalues ---    0.15984   0.16000   0.16000   0.16000   0.16000
     Eigenvalues ---    0.16178   0.21972   0.22187   0.27890   0.28503
     Eigenvalues ---    0.28547   0.28557   0.36631   0.39298   0.39762
     Eigenvalues ---    0.39790   0.39827   0.39864   0.39899   0.39917
     Eigenvalues ---    0.39940   0.39957   0.39966   0.39985   1.08283
 RFO step:  Lambda=-2.26190646D-02 EMin= 2.35175617D-03
 Quartic linear search produced a step of  0.03571.
 Iteration  1 RMS(Cart)=  0.04132600 RMS(Int)=  0.00106273
 Iteration  2 RMS(Cart)=  0.00093751 RMS(Int)=  0.00011835
 Iteration  3 RMS(Cart)=  0.00000100 RMS(Int)=  0.00011835
 Iteration  4 RMS(Cart)=  0.00000000 RMS(Int)=  0.00011835
 Variable       Old X    -DE/DX   Delta X   Delta X   Delta X     New X
                                 (Linear)    (Quad)   (Total)
    R1        2.93089   0.00192   0.00077   0.00811   0.00888   2.93977
    R2        2.00699   0.02218   0.00082   0.05590   0.05672   2.06371
    R3        2.00681   0.02242   0.00082   0.05648   0.05730   2.06411
    R4        1.97799   0.03400  -0.00026   0.08275   0.08249   2.06048
    R5        2.97630  -0.00596   0.00234  -0.01482  -0.01248   2.96382
    R6        2.00518   0.02267   0.00079   0.05694   0.05773   2.06291
    R7        2.00451   0.02273   0.00078   0.05703   0.05781   2.06232
    R8        2.92465  -0.00468   0.00055  -0.01442  -0.01387   2.91078
    R9        2.00793   0.02332   0.00079   0.05879   0.05958   2.06751
   R10        2.00596   0.02362   0.00081   0.05932   0.06013   2.06609
   R11        2.93010  -0.00601   0.00071  -0.01858  -0.01787   2.91222
   R12        2.00632   0.02365   0.00084   0.05942   0.06025   2.06657
   R13        2.00310   0.02589   0.00070   0.06465   0.06535   2.06846
   R14        2.00855   0.02272   0.00081   0.05738   0.05819   2.06674
   R15        1.99722   0.02668   0.00044   0.06623   0.06667   2.06388
   R16        2.00743   0.02336   0.00082   0.05883   0.05965   2.06708
    A1        1.90949   0.00274  -0.00002   0.01487   0.01470   1.92419
    A2        1.90554   0.00467  -0.00015   0.02595   0.02556   1.93110
    A3        1.95318   0.00237   0.00151   0.01774   0.01903   1.97221
    A4        1.90382  -0.00377  -0.00027  -0.02305  -0.02348   1.88034
    A5        1.89755  -0.00273  -0.00047  -0.01665  -0.01726   1.88029
    A6        1.89366  -0.00352  -0.00062  -0.02042  -0.02131   1.87235
    A7        2.07591  -0.00837   0.00589  -0.01333  -0.00747   2.06844
    A8        1.88708   0.00280  -0.00086   0.01723   0.01625   1.90333
    A9        1.84558   0.00470  -0.00232   0.02137   0.01910   1.86468
   A10        1.86358   0.00400  -0.00166   0.02021   0.01840   1.88198
   A11        1.86868   0.00128  -0.00148  -0.00180  -0.00319   1.86550
   A12        1.92073  -0.00478   0.00035  -0.05007  -0.04975   1.87097
   A13        2.07344  -0.01060   0.00583  -0.02410  -0.01817   2.05528
   A14        1.89466   0.00193  -0.00059   0.00513   0.00466   1.89933
   A15        1.84429   0.00578  -0.00242   0.02899   0.02660   1.87090
   A16        1.84302   0.00534  -0.00238   0.02177   0.01938   1.86240
   A17        1.88561   0.00204  -0.00087   0.00823   0.00748   1.89309
   A18        1.92109  -0.00483   0.00037  -0.04528  -0.04496   1.87613
   A19        1.93817   0.00390   0.00097   0.02518   0.02591   1.96408
   A20        1.90551  -0.00276  -0.00025  -0.01954  -0.01976   1.88575
   A21        1.90410   0.00123  -0.00023   0.01774   0.01724   1.92134
   A22        1.87351   0.00085  -0.00133   0.00428   0.00311   1.87662
   A23        1.93440  -0.00224   0.00091  -0.00385  -0.00347   1.93092
   A24        1.90763  -0.00109  -0.00009  -0.02538  -0.02542   1.88221
   A25        1.91137   0.00401   0.00004   0.02431   0.02421   1.93558
   A26        1.94658   0.00070   0.00125   0.00731   0.00846   1.95504
   A27        1.90397   0.00123  -0.00024   0.00456   0.00429   1.90826
   A28        1.89929  -0.00199  -0.00037  -0.00895  -0.00952   1.88977
   A29        1.90521  -0.00258  -0.00016  -0.01526  -0.01549   1.88971
   A30        1.89698  -0.00150  -0.00053  -0.01283  -0.01335   1.88364
    D1        2.41844   0.00107   0.00052   0.02927   0.02983   2.44827
    D2        0.29142  -0.00064  -0.00066  -0.00314  -0.00382   0.28760
    D3       -1.76532   0.00110   0.00071   0.03545   0.03612  -1.72920
    D4       -1.78244   0.00092   0.00009   0.02565   0.02576  -1.75668
    D5        2.37372  -0.00079  -0.00108  -0.00676  -0.00789   2.36583
    D6        0.31698   0.00094   0.00028   0.03183   0.03206   0.34903
    D7        0.31424   0.00113   0.00016   0.02868   0.02893   0.34316
    D8       -1.81278  -0.00058  -0.00101  -0.00372  -0.00473  -1.81751
    D9        2.41366   0.00116   0.00035   0.03486   0.03522   2.44888
   D10       -0.04220  -0.00034  -0.00151  -0.04366  -0.04511  -0.08731
   D11       -2.14608  -0.00159  -0.00190  -0.06005  -0.06198  -2.20806
   D12        2.07686   0.00003  -0.00063  -0.02516  -0.02584   2.05102
   D13        2.09655   0.00087   0.00005  -0.01280  -0.01267   2.08388
   D14       -0.00733  -0.00037  -0.00033  -0.02919  -0.02954  -0.03687
   D15       -2.06758   0.00124   0.00094   0.00570   0.00660  -2.06098
   D16       -2.12981  -0.00201  -0.00129  -0.06158  -0.06280  -2.19260
   D17        2.04949  -0.00325  -0.00167  -0.07798  -0.07967   1.96983
   D18       -0.01075  -0.00164  -0.00040  -0.04308  -0.04352  -0.05428
   D19       -1.31931   0.00064  -0.00224  -0.02480  -0.02718  -1.34649
   D20        2.90147  -0.00102  -0.00105  -0.03301  -0.03395   2.86752
   D21        0.81777   0.00121  -0.00064  -0.00115  -0.00157   0.81619
   D22        0.81068   0.00047  -0.00096  -0.01631  -0.01752   0.79316
   D23       -1.25172  -0.00119   0.00024  -0.02451  -0.02429  -1.27601
   D24        2.94775   0.00103   0.00064   0.00735   0.00809   2.95584
   D25        2.86581  -0.00139  -0.00233  -0.05357  -0.05610   2.80970
   D26        0.80341  -0.00305  -0.00114  -0.06177  -0.06287   0.74053
   D27       -1.28030  -0.00082  -0.00073  -0.02991  -0.03050  -1.31080
   D28       -3.12381   0.00114   0.00059   0.01035   0.01094  -3.11287
   D29        1.05598   0.00051   0.00023   0.00065   0.00079   1.05677
   D30       -1.03963   0.00113   0.00026   0.00903   0.00928  -1.03035
   D31       -1.04213   0.00054   0.00004   0.00368   0.00379  -1.03835
   D32        3.13766  -0.00009  -0.00032  -0.00602  -0.00637   3.13129
   D33        1.04204   0.00054  -0.00028   0.00236   0.00213   1.04417
   D34        1.03995  -0.00154  -0.00034  -0.02669  -0.02700   1.01296
   D35       -1.06344  -0.00217  -0.00070  -0.03640  -0.03715  -1.10059
   D36        3.12413  -0.00155  -0.00067  -0.02801  -0.02866   3.09548
         Item               Value     Threshold  Converged?
 Maximum Force            0.034000     0.000450     NO 
 RMS     Force            0.009829     0.000300     NO 
 Maximum Displacement     0.109556     0.001800     NO 
 RMS     Displacement     0.041510     0.001200     NO 
 Predicted change in Energy=-1.174068D-02
 GradGradGradGradGradGradGradGradGradGradGradGradGradGradGradGradGradGrad

                          Input orientation:                          
 ---------------------------------------------------------------------
 Center     Atomic      Atomic             Coordinates (Angstroms)
 Number     Number       Type             X           Y           Z
 ---------------------------------------------------------------------
      1          6           0        0.025570   -0.146539   -0.345192
      2          6           0        1.149090    0.925783   -0.256281
      3          6           0        1.664823    1.353996    1.161636
      4          6           0        0.945079    0.771868    2.392762
      5          6           0       -0.404449    1.462675    2.669343
      6          1           0       -0.685862    0.115727   -1.131129
      7          1           0        0.445441   -1.124877   -0.589392
      8          1           0       -0.532742   -0.256740    0.584878
      9          1           0       -0.878179    1.049325    3.564240
     10          1           0        0.823975    1.826814   -0.779856
     11          1           0        2.008397    0.529128   -0.799664
     12          1           0        1.601775    2.442981    1.246159
     13          1           0        2.721982    1.080689    1.217164
     14          1           0        1.582977    0.933856    3.266130
     15          1           0        0.808448   -0.307505    2.272797
     16          1           0       -1.098731    1.354424    1.833240
     17          1           0       -0.237592    2.531396    2.832164
 ---------------------------------------------------------------------
                    Distance matrix (angstroms):
                    1          2          3          4          5
     1  C    0.000000
     2  C    1.555659   0.000000
     3  C    2.685011   1.568386   0.000000
     4  C    3.030736   2.661342   1.540317   0.000000
     5  C    3.444112   3.355743   2.562592   1.541083   0.000000
     6  H    1.092070   2.188287   3.509388   3.938058   4.041912
     7  H    1.092277   2.193465   3.270749   3.569386   4.247010
     8  H    1.090361   2.221366   2.785034   2.551555   2.705151
     9  H    4.186945   4.326830   3.511722   2.184859   1.093672
    10  H    2.172672   1.091644   2.167942   3.345606   3.679483
    11  H    2.143519   1.091334   2.155261   3.373597   4.327511
    12  H    3.423804   2.182691   1.094078   2.130391   2.647902
    13  H    3.349280   2.160793   1.093327   2.152855   3.468329
    14  H    4.078531   3.549042   2.147582   1.093584   2.141417
    15  H    2.737274   2.834302   2.174545   1.094581   2.182179
    16  H    2.874458   3.098795   2.843991   2.197634   1.092160
    17  H    4.163674   3.746915   2.792153   2.165115   1.093853
                    6          7          8          9         10
     6  H    0.000000
     7  H    1.764207   0.000000
     8  H    1.762629   1.757673   0.000000
     9  H    4.791146   4.871527   3.271349   0.000000
    10  H    2.308857   2.981953   2.836262   4.730009   0.000000
    11  H    2.745870   2.285340   2.998656   5.258002   1.757054
    12  H    4.037437   4.175639   3.504561   3.669598   2.255964
    13  H    4.249592   3.648397   3.575154   4.297779   2.854334
    14  H    5.015262   4.516349   3.617029   2.481833   4.212298
    15  H    3.741497   2.998665   2.156487   2.520620   3.724815
    16  H    3.239185   3.794805   2.115326   1.771465   3.278448
    17  H    4.663057   5.053900   3.593203   1.772800   3.830150
                   11         12         13         14         15
    11  H    0.000000
    12  H    2.830825   0.000000
    13  H    2.209303   1.763957   0.000000
    14  H    4.107976   2.521526   2.348861   0.000000
    15  H    3.402918   3.041139   2.589026   1.768498   0.000000
    16  H    4.155424   2.970245   3.879733   3.069464   2.567597
    17  H    4.716326   2.430330   3.670403   2.460678   3.076760
                   16         17
    16  H    0.000000
    17  H    1.767674   0.000000
 Stoichiometry    C5H12
 Framework group  C1[X(C5H12)]
 Deg. of freedom    45
 Full point group                 C1      NOp   1
 Largest Abelian subgroup         C1      NOp   1
 Largest concise Abelian subgroup C1      NOp   1
                         Standard orientation:                         
 ---------------------------------------------------------------------
 Center     Atomic      Atomic             Coordinates (Angstroms)
 Number     Number       Type             X           Y           Z
 ---------------------------------------------------------------------
      1          6           0        1.608457   -0.966621    0.205138
      2          6           0        1.356807    0.473734   -0.326015
      3          6           0       -0.042072    1.133696   -0.066353
      4          6           0       -1.130061    0.270401    0.599663
      5          6           0       -1.776656   -0.725960   -0.382231
      6          1           0        2.178937   -1.544447   -0.525127
      7          1           0        2.185379   -0.939862    1.132239
      8          1           0        0.686925   -1.511189    0.412772
      9          1           0       -2.563801   -1.303904    0.110213
     10          1           0        1.541540    0.494211   -1.401721
     11          1           0        2.103049    1.118097    0.141883
     12          1           0       -0.453085    1.476809   -1.020475
     13          1           0        0.127673    2.017085    0.555078
     14          1           0       -1.918753    0.937249    0.959116
     15          1           0       -0.715064   -0.255418    1.465341
     16          1           0       -1.046663   -1.424873   -0.796289
     17          1           0       -2.224986   -0.175257   -1.214242
 ---------------------------------------------------------------------
 Rotational constants (GHZ):           6.9340836           3.1847914           2.5901968
 Standard basis: 6-31G(d) (6D, 7F)
 There are    99 symmetry adapted cartesian basis functions of A   symmetry.
 There are    99 symmetry adapted basis functions of A   symmetry.
    99 basis functions,   188 primitive gaussians,    99 cartesian basis functions
    21 alpha electrons       21 beta electrons
       nuclear repulsion energy       190.0357991545 Hartrees.
 NAtoms=   17 NActive=   17 NUniq=   17 SFac= 1.00D+00 NAtFMM=   60 NAOKFM=F Big=F
 Integral buffers will be    131072 words long.
 Raffenetti 2 integral format.
 Two-electron integral symmetry is turned on.
 Nuclear repulsion after empirical dispersion term =      190.0354926679 Hartrees.
 One-electron integrals computed using PRISM.
 NBasis=    99 RedAO= T EigKep=  4.27D-03  NBF=    99
 NBsUse=    99 1.00D-06 EigRej= -1.00D+00 NBFU=    99
 Initial guess from the checkpoint file:  "pentane_20.chk"
 B after Tr=     0.000000   -0.000000    0.000000
         Rot=    0.999926   -0.010818   -0.003738    0.004175 Ang=  -1.40 deg.
 ExpMin= 1.61D-01 ExpMax= 3.05D+03 ExpMxC= 4.57D+02 IAcc=2 IRadAn=         4 AccDes= 0.00D+00
 Harris functional with IExCor= 1009 and IRadAn=       4 diagonalized for initial guess.
 HarFok:  IExCor= 1009 AccDes= 0.00D+00 IRadAn=         4 IDoV= 1 UseB2=F ITyADJ=14
 ICtDFT=  3500011 ScaDFX=  1.000000  1.000000  1.000000  1.000000
 FoFCou: FMM=F IPFlag=           0 FMFlag=      100000 FMFlg1=           0
         NFxFlg=           0 DoJE=T BraDBF=F KetDBF=T FulRan=T
         wScrn=  0.000000 ICntrl=       500 IOpCl=  0 I1Cent=   200000004 NGrid=           0
         NMat0=    1 NMatS0=      1 NMatT0=    0 NMatD0=    1 NMtDS0=    0 NMtDT0=    0
 Petite list used in FoFCou.
 Keep R1 ints in memory in canonical form, NReq=15944043.
 Requested convergence on RMS density matrix=1.00D-08 within 128 cycles.
 Requested convergence on MAX density matrix=1.00D-06.
 Requested convergence on             energy=1.00D-06.
 No special actions if energy rises.
 Integral accuracy reduced to 1.0D-05 until final iterations.
 Initial convergence to 1.0D-05 achieved.  Increase integral accuracy.
 SCF Done:  E(RM062X) =  -197.635194177     A.U. after   11 cycles
            NFock= 11  Conv=0.37D-08     -V/T= 2.0095
 Calling FoFJK, ICntrl=      2127 FMM=F ISym2X=0 I1Cent= 0 IOpClX= 0 NMat=1 NMatS=1 NMatT=0.
 ***** Axes restored to original set *****
 -------------------------------------------------------------------
 Center     Atomic                   Forces (Hartrees/Bohr)
 Number     Number              X              Y              Z
 -------------------------------------------------------------------
      1        6           0.007132532    0.005279781    0.001410226
      2        6          -0.004951340   -0.003163572    0.007969324
      3        6          -0.005074055   -0.008201007   -0.001401158
      4        6          -0.005522871    0.007640996   -0.005601509
      5        6           0.007072915   -0.004632546   -0.000167309
      6        1          -0.000428948   -0.001106223   -0.000702817
      7        1          -0.000704888   -0.001212520    0.000716773
      8        1          -0.001422797    0.000429293   -0.000199836
      9        1          -0.000926344    0.000448521   -0.000032932
     10        1          -0.000304467   -0.000136132   -0.001961534
     11        1           0.000573217    0.003194590   -0.003912662
     12        1           0.003254546    0.001498936   -0.000861647
     13        1           0.001205159    0.001838996    0.002249661
     14        1           0.001448931   -0.002434608    0.001030275
     15        1           0.000699148   -0.000949402    0.002058833
     16        1          -0.000925565    0.000598185   -0.000906806
     17        1          -0.001125174    0.000906710    0.000313117
 -------------------------------------------------------------------
 Cartesian Forces:  Max     0.008201007 RMS     0.003270264

 GradGradGradGradGradGradGradGradGradGradGradGradGradGradGradGradGradGrad
 Berny optimization.
 Using GEDIIS/GDIIS optimizer.
 FormGI is forming the generalized inverse of G from B-inverse, IUseBI=4.
 Internal  Forces:  Max     0.005713932 RMS     0.001491818
 Search for a local minimum.
 Step number   3 out of a maximum of  102
 All quantities printed in internal units (Hartrees-Bohrs-Radians)
 Mixed Optimization -- RFO/linear search
 Update second derivatives using D2CorX and points    1    2    3
 DE= -1.18D-02 DEPred=-1.17D-02 R= 1.00D+00
 TightC=F SS=  1.41D+00  RLast= 3.16D-01 DXNew= 5.0454D-01 9.4822D-01
 Trust test= 1.00D+00 RLast= 3.16D-01 DXMaxT set to 5.05D-01
 ITU=  1  0  0
 Use linear search instead of GDIIS.
     Eigenvalues ---    0.00234   0.00236   0.00242   0.00257   0.02986
     Eigenvalues ---    0.03029   0.03584   0.04655   0.04679   0.04814
     Eigenvalues ---    0.05244   0.05352   0.05541   0.05621   0.08207
     Eigenvalues ---    0.09067   0.09225   0.12209   0.12800   0.12937
     Eigenvalues ---    0.15724   0.16000   0.16000   0.16000   0.16015
     Eigenvalues ---    0.16139   0.21972   0.22076   0.27316   0.28269
     Eigenvalues ---    0.28544   0.28619   0.38225   0.39657   0.39788
     Eigenvalues ---    0.39813   0.39863   0.39892   0.39903   0.39920
     Eigenvalues ---    0.39953   0.39959   0.39982   0.40354   1.08563
 RFO step:  Lambda=-3.29438816D-03 EMin= 2.33974592D-03
 Quartic linear search produced a step of  0.11954.
 Iteration  1 RMS(Cart)=  0.11499748 RMS(Int)=  0.00580941
 Iteration  2 RMS(Cart)=  0.00876684 RMS(Int)=  0.00008233
 Iteration  3 RMS(Cart)=  0.00003786 RMS(Int)=  0.00007973
 Iteration  4 RMS(Cart)=  0.00000000 RMS(Int)=  0.00007973
 Variable       Old X    -DE/DX   Delta X   Delta X   Delta X     New X
                                 (Linear)    (Quad)   (Total)
    R1        2.93977  -0.00571   0.00106  -0.02559  -0.02453   2.91524
    R2        2.06371   0.00052   0.00678  -0.00676   0.00002   2.06374
    R3        2.06411   0.00065   0.00685  -0.00641   0.00044   2.06455
    R4        2.06048   0.00051   0.00986  -0.00353   0.00633   2.06682
    R5        2.96382  -0.00386  -0.00149  -0.02407  -0.02556   2.93826
    R6        2.06291   0.00092   0.00690  -0.00559   0.00131   2.06422
    R7        2.06232   0.00124   0.00691  -0.00469   0.00222   2.06454
    R8        2.91078  -0.00357  -0.00166  -0.01487  -0.01653   2.89425
    R9        2.06751   0.00124   0.00712  -0.00486   0.00226   2.06977
   R10        2.06609   0.00082   0.00719  -0.00616   0.00103   2.06712
   R11        2.91222  -0.00493  -0.00214  -0.02039  -0.02253   2.88969
   R12        2.06657   0.00131   0.00720  -0.00495   0.00225   2.06882
   R13        2.06846   0.00062   0.00781  -0.00654   0.00127   2.06973
   R14        2.06674   0.00020   0.00696  -0.00766  -0.00070   2.06604
   R15        2.06388   0.00122   0.00797  -0.00375   0.00422   2.06810
   R16        2.06708   0.00076   0.00713  -0.00629   0.00084   2.06793
    A1        1.92419   0.00098   0.00176   0.00486   0.00658   1.93077
    A2        1.93110   0.00137   0.00306   0.00867   0.01167   1.94277
    A3        1.97221   0.00029   0.00227  -0.00493  -0.00267   1.96954
    A4        1.88034  -0.00107  -0.00281  -0.00419  -0.00706   1.87328
    A5        1.88029  -0.00093  -0.00206  -0.00467  -0.00674   1.87355
    A6        1.87235  -0.00080  -0.00255  -0.00023  -0.00281   1.86954
    A7        2.06844  -0.00365  -0.00089  -0.03447  -0.03513   2.03330
    A8        1.90333   0.00035   0.00194   0.00493   0.00710   1.91044
    A9        1.86468   0.00156   0.00228   0.01657   0.01904   1.88373
   A10        1.88198   0.00248   0.00220   0.02754   0.02976   1.91174
   A11        1.86550   0.00135  -0.00038   0.01706   0.01681   1.88231
   A12        1.87097  -0.00211  -0.00595  -0.03372  -0.03977   1.83120
   A13        2.05528  -0.00295  -0.00217  -0.03043  -0.03243   2.02285
   A14        1.89933   0.00022   0.00056   0.00218   0.00287   1.90219
   A15        1.87090   0.00267   0.00318   0.03292   0.03623   1.90713
   A16        1.86240   0.00184   0.00232   0.01823   0.02053   1.88294
   A17        1.89309   0.00004   0.00089   0.00621   0.00737   1.90047
   A18        1.87613  -0.00189  -0.00537  -0.03132  -0.03671   1.83942
   A19        1.96408  -0.00015   0.00310  -0.00034   0.00267   1.96675
   A20        1.88575   0.00009  -0.00236   0.00514   0.00269   1.88844
   A21        1.92134   0.00061   0.00206   0.00708   0.00912   1.93045
   A22        1.87662   0.00101   0.00037   0.01488   0.01523   1.89185
   A23        1.93092  -0.00026  -0.00042  -0.00217  -0.00266   1.92826
   A24        1.88221  -0.00134  -0.00304  -0.02553  -0.02851   1.85370
   A25        1.93558   0.00113   0.00289   0.00665   0.00949   1.94507
   A26        1.95504   0.00012   0.00101  -0.00474  -0.00373   1.95131
   A27        1.90826   0.00148   0.00051   0.00990   0.01038   1.91864
   A28        1.88977  -0.00067  -0.00114  -0.00145  -0.00260   1.88717
   A29        1.88971  -0.00114  -0.00185  -0.00479  -0.00673   1.88299
   A30        1.88364  -0.00105  -0.00160  -0.00606  -0.00764   1.87599
    D1        2.44827   0.00057   0.00357   0.11233   0.11594   2.56421
    D2        0.28760  -0.00031  -0.00046   0.09685   0.09635   0.38394
    D3       -1.72920   0.00116   0.00432   0.12511   0.12938  -1.59982
    D4       -1.75668   0.00073   0.00308   0.11571   0.11885  -1.63782
    D5        2.36583  -0.00016  -0.00094   0.10023   0.09926   2.46510
    D6        0.34903   0.00132   0.00383   0.12848   0.13230   0.48133
    D7        0.34316   0.00087   0.00346   0.11821   0.12173   0.46489
    D8       -1.81751  -0.00001  -0.00057   0.10273   0.10214  -1.71537
    D9        2.44888   0.00146   0.00421   0.13098   0.13517   2.58405
   D10       -0.08731  -0.00028  -0.00539  -0.16745  -0.17269  -0.26000
   D11       -2.20806  -0.00080  -0.00741  -0.17172  -0.17911  -2.38718
   D12        2.05102  -0.00011  -0.00309  -0.15353  -0.15665   1.89437
   D13        2.08388  -0.00040  -0.00151  -0.16277  -0.16428   1.91960
   D14       -0.03687  -0.00092  -0.00353  -0.16703  -0.17070  -0.20758
   D15       -2.06098  -0.00023   0.00079  -0.14884  -0.14824  -2.20921
   D16       -2.19260  -0.00097  -0.00751  -0.17997  -0.18730  -2.37990
   D17        1.96983  -0.00150  -0.00952  -0.18423  -0.19372   1.77611
   D18       -0.05428  -0.00080  -0.00520  -0.16604  -0.17126  -0.22553
   D19       -1.34649   0.00095  -0.00325  -0.03418  -0.03739  -1.38389
   D20        2.86752  -0.00026  -0.00406  -0.05571  -0.05971   2.80781
   D21        0.81619   0.00095  -0.00019  -0.03196  -0.03205   0.78414
   D22        0.79316   0.00071  -0.00209  -0.03748  -0.03966   0.75349
   D23       -1.27601  -0.00051  -0.00290  -0.05902  -0.06198  -1.33799
   D24        2.95584   0.00071   0.00097  -0.03527  -0.03433   2.92152
   D25        2.80970  -0.00053  -0.00671  -0.06151  -0.06826   2.74145
   D26        0.74053  -0.00174  -0.00752  -0.08304  -0.09057   0.64996
   D27       -1.31080  -0.00053  -0.00365  -0.05930  -0.06292  -1.37371
   D28       -3.11287  -0.00029   0.00131  -0.04029  -0.03904   3.13128
   D29        1.05677  -0.00031   0.00009  -0.03984  -0.03979   1.01698
   D30       -1.03035  -0.00005   0.00111  -0.03583  -0.03473  -1.06508
   D31       -1.03835   0.00039   0.00045  -0.02452  -0.02404  -1.06239
   D32        3.13129   0.00037  -0.00076  -0.02406  -0.02479   3.10650
   D33        1.04417   0.00062   0.00025  -0.02005  -0.01973   1.02444
   D34        1.01296  -0.00077  -0.00323  -0.04766  -0.05091   0.96205
   D35       -1.10059  -0.00079  -0.00444  -0.04720  -0.05166  -1.15225
   D36        3.09548  -0.00054  -0.00343  -0.04319  -0.04660   3.04888
         Item               Value     Threshold  Converged?
 Maximum Force            0.005714     0.000450     NO 
 RMS     Force            0.001492     0.000300     NO 
 Maximum Displacement     0.388436     0.001800     NO 
 RMS     Displacement     0.114696     0.001200     NO 
 Predicted change in Energy=-2.219057D-03
 GradGradGradGradGradGradGradGradGradGradGradGradGradGradGradGradGradGrad

                          Input orientation:                          
 ---------------------------------------------------------------------
 Center     Atomic      Atomic             Coordinates (Angstroms)
 Number     Number       Type             X           Y           Z
 ---------------------------------------------------------------------
      1          6           0        0.098477   -0.204878   -0.311233
      2          6           0        1.103965    0.963561   -0.251224
      3          6           0        1.655307    1.332868    1.154915
      4          6           0        0.890812    0.750444    2.347407
      5          6           0       -0.385450    1.529659    2.667267
      6          1           0       -0.634513   -0.041282   -1.104079
      7          1           0        0.601573   -1.151180   -0.523333
      8          1           0       -0.455286   -0.336957    0.622635
      9          1           0       -0.919964    1.090967    3.514115
     10          1           0        0.661499    1.848556   -0.714053
     11          1           0        1.954333    0.708537   -0.887941
     12          1           0        1.662318    2.423077    1.259885
     13          1           0        2.703581    1.027884    1.223184
     14          1           0        1.545945    0.785757    3.223812
     15          1           0        0.661988   -0.307345    2.179162
     16          1           0       -1.068167    1.559976    1.812471
     17          1           0       -0.136418    2.563354    2.926010
 ---------------------------------------------------------------------
                    Distance matrix (angstroms):
                    1          2          3          4          5
     1  C    0.000000
     2  C    1.542678   0.000000
     3  C    2.634003   1.554861   0.000000
     4  C    2.934076   2.616053   1.531570   0.000000
     5  C    3.480556   3.325119   2.547671   1.529161   0.000000
     6  H    1.092082   2.181600   3.497802   3.855672   4.093036
     7  H    1.092511   2.190564   3.177636   3.455573   4.282645
     8  H    1.093713   2.210484   2.743399   2.443207   2.769414
     9  H    4.165301   4.276716   3.500909   2.180843   1.093301
    10  H    2.166991   1.092339   2.178677   3.260518   3.554030
    11  H    2.147351   1.092507   2.156957   3.405922   4.334551
    12  H    3.438046   2.173798   1.095273   2.139072   2.640507
    13  H    3.265073   2.176416   1.093871   2.151042   3.446631
    14  H    3.946272   3.507539   2.142808   1.094774   2.143226
    15  H    2.555409   2.778006   2.173951   1.095255   2.170243
    16  H    2.997648   3.054948   2.810920   2.186115   1.094394
    17  H    4.265915   3.767320   2.803775   2.162551   1.094300
                    6          7          8          9         10
     6  H    0.000000
     7  H    1.759843   0.000000
     8  H    1.760990   1.758736   0.000000
     9  H    4.763527   4.862437   3.258152   0.000000
    10  H    2.324491   3.006391   2.794711   4.577376   0.000000
    11  H    2.703899   2.328400   3.030043   5.271236   1.732426
    12  H    4.115438   4.132840   3.536683   3.677533   2.286514
    13  H    4.207391   3.495294   3.493120   4.287473   2.931977
    14  H    4.916201   4.322575   3.468650   2.501627   4.173556
    15  H    3.539969   2.831817   1.916235   2.497989   3.608130
    16  H    3.355347   3.948973   2.321570   1.771306   3.075443
    17  H    4.824298   5.122535   3.717394   1.768540   3.794426
                   11         12         13         14         15
    11  H    0.000000
    12  H    2.763707   0.000000
    13  H    2.262786   1.741304   0.000000
    14  H    4.132705   2.559564   2.324061   0.000000
    15  H    3.479840   3.049743   2.620082   1.751440   0.000000
    16  H    4.141580   2.916479   3.854409   3.069997   2.571923
    17  H    4.728404   2.455830   3.650052   2.465539   3.071831
                   16         17
    16  H    0.000000
    17  H    1.764906   0.000000
 Stoichiometry    C5H12
 Framework group  C1[X(C5H12)]
 Deg. of freedom    45
 Full point group                 C1      NOp   1
 Largest Abelian subgroup         C1      NOp   1
 Largest concise Abelian subgroup C1      NOp   1
                         Standard orientation:                         
 ---------------------------------------------------------------------
 Center     Atomic      Atomic             Coordinates (Angstroms)
 Number     Number       Type             X           Y           Z
 ---------------------------------------------------------------------
      1          6           0        1.601793   -0.942275    0.205704
      2          6           0        1.326319    0.454613   -0.388159
[...]
 ! A21   A(3,4,15)             109.7776         -DE/DX =    0.0                 !
 ! A22   A(5,4,14)             109.3504         -DE/DX =    0.0                 !
 ! A23   A(5,4,15)             109.5227         -DE/DX =    0.0                 !
 ! A24   A(14,4,15)            105.9994         -DE/DX =    0.0                 !
 ! A25   A(4,5,9)              111.2605         -DE/DX =    0.0                 !
 ! A26   A(4,5,16)             111.5317         -DE/DX =    0.0                 !
 ! A27   A(4,5,17)             110.8602         -DE/DX =    0.0                 !
 ! A28   A(9,5,16)             107.5479         -DE/DX =    0.0                 !
 ! A29   A(9,5,17)             107.8836         -DE/DX =    0.0                 !
 ! A30   A(16,5,17)            107.5786         -DE/DX =    0.0                 !
 ! D1    D(6,1,2,3)           -174.1775         -DE/DX =    0.0                 !
 ! D2    D(6,1,2,10)            62.8683         -DE/DX =    0.0                 !
 ! D3    D(6,1,2,11)           -52.8849         -DE/DX =    0.0                 !
 ! D4    D(7,1,2,3)            -54.1185         -DE/DX =    0.0                 !
 ! D5    D(7,1,2,10)          -177.0727         -DE/DX =    0.0                 !
 ! D6    D(7,1,2,11)            67.1741         -DE/DX =    0.0                 !
 ! D7    D(8,1,2,3)             65.7354         -DE/DX =    0.0                 !
 ! D8    D(8,1,2,10)           -57.2188         -DE/DX =    0.0                 !
 ! D9    D(8,1,2,11)          -172.972          -DE/DX =    0.0                 !
 ! D10   D(1,2,3,4)            -56.8341         -DE/DX =    0.0                 !
 ! D11   D(1,2,3,12)          -178.991          -DE/DX =    0.0                 !
 ! D12   D(1,2,3,13)            65.3463         -DE/DX =    0.0                 !
 ! D13   D(10,2,3,4)            65.9792         -DE/DX =    0.0                 !
 ! D14   D(10,2,3,12)          -56.1777         -DE/DX =    0.0                 !
 ! D15   D(10,2,3,13)         -171.8404         -DE/DX =    0.0                 !
 ! D16   D(11,2,3,4)          -178.5505         -DE/DX =    0.0                 !
 ! D17   D(11,2,3,12)           59.2926         -DE/DX =    0.0                 !
 ! D18   D(11,2,3,13)          -56.37           -DE/DX =    0.0                 !
 ! D19   D(2,3,4,5)            -56.8353         -DE/DX =    0.0                 !
 ! D20   D(2,3,4,14)          -178.5583         -DE/DX =    0.0                 !
 ! D21   D(2,3,4,15)            65.9763         -DE/DX =    0.0                 !
 ! D22   D(12,3,4,5)            65.3452         -DE/DX =    0.0                 !
 ! D23   D(12,3,4,14)          -56.3777         -DE/DX =    0.0                 !
 ! D24   D(12,3,4,15)         -171.8432         -DE/DX =    0.0                 !
 ! D25   D(13,3,4,5)          -178.9922         -DE/DX =    0.0                 !
 ! D26   D(13,3,4,14)           59.2849         -DE/DX =    0.0                 !
 ! D27   D(13,3,4,15)          -56.1806         -DE/DX =    0.0                 !
 ! D28   D(3,4,5,9)           -174.1923         -DE/DX =    0.0                 !
 ! D29   D(3,4,5,16)            65.7211         -DE/DX =    0.0                 !
 ! D30   D(3,4,5,17)           -54.1332         -DE/DX =    0.0                 !
 ! D31   D(14,4,5,9)           -52.896          -DE/DX =    0.0                 !
 ! D32   D(14,4,5,16)         -172.9826         -DE/DX =    0.0                 !
 ! D33   D(14,4,5,17)           67.1631         -DE/DX =    0.0                 !
 ! D34   D(15,4,5,9)            62.8554         -DE/DX =    0.0                 !
 ! D35   D(15,4,5,16)          -57.2312         -DE/DX =    0.0                 !
 ! D36   D(15,4,5,17)         -177.0855         -DE/DX =    0.0                 !
 --------------------------------------------------------------------------------
 GradGradGradGradGradGradGradGradGradGradGradGradGradGradGradGradGradGrad

                          Input orientation:                          
 ---------------------------------------------------------------------
 Center     Atomic      Atomic             Coordinates (Angstroms)
 Number     Number       Type             X           Y           Z
 ---------------------------------------------------------------------
      1          6           0        0.235329   -0.264185   -0.410718
      2          6           0        0.883766    1.092945   -0.143497
      3          6           0        1.683770    1.136557    1.162477
      4          6           0        0.880872    0.770249    2.414963
      5          6           0       -0.354270    1.645647    2.619426
      6          1           0       -0.239301   -0.289865   -1.395826
      7          1           0        0.980874   -1.066609   -0.375326
      8          1           0       -0.534584   -0.495093    0.332813
      9          1           0       -0.843780    1.424557    3.572241
     10          1           0        0.111866    1.872191   -0.132162
     11          1           0        1.554889    1.344421   -0.973036
     12          1           0        2.100637    2.144217    1.290514
     13          1           0        2.539883    0.454459    1.076938
     14          1           0        1.537010    0.858059    3.288764
     15          1           0        0.579640   -0.283436    2.367738
     16          1           0       -1.092262    1.491111    1.825452
     17          1           0       -0.084341    2.707775    2.618239
 ---------------------------------------------------------------------
                    Distance matrix (angstroms):
                    1          2          3          4          5
     1  C    0.000000
     2  C    1.527638   0.000000
     3  C    2.556365   1.532147   0.000000
     4  C    3.077539   2.578731   1.532171   0.000000
     5  C    3.629995   3.077655   2.556459   1.527647   0.000000
     6  H    1.093787   2.177560   3.503968   4.111050   4.458887
     7  H    1.095889   2.174131   2.777200   3.342118   4.255289
     8  H    1.094953   2.181846   2.876059   2.817792   3.137496
     9  H    4.458732   4.111093   3.504057   2.177576   1.093781
    10  H    2.157994   1.096897   2.165208   2.879842   2.799972
    11  H    2.155238   1.096258   2.149472   3.501786   4.079389
    12  H    3.489120   2.154608   1.097975   2.154066   2.835692
    13  H    2.835584   2.154030   1.097954   2.154611   3.489172
    14  H    4.079212   3.501758   2.149464   1.096246   2.155284
    15  H    2.799775   2.879794   2.165211   1.096914   2.157984
    16  H    3.137518   2.817798   2.876039   2.181840   1.094947
    17  H    4.255504   3.342468   2.777442   2.174159   1.095892
                    6          7          8          9         10
     6  H    0.000000
     7  H    1.770191   0.000000
     8  H    1.765645   1.767683   0.000000
     9  H    5.290210   5.011841   3.778168   0.000000
    10  H    2.528764   3.074223   2.497625   3.851784   0.000000
    11  H    2.463485   2.549473   3.074890   5.139998   1.751549
    12  H    4.314682   3.786594   3.850654   3.793914   2.460328
    13  H    3.793737   2.617867   3.302683   4.314719   3.060580
    14  H    5.139882   4.176025   3.854889   2.463624   3.842165
    15  H    3.851638   2.880755   2.329638   2.528674   3.333922
    16  H    3.778366   3.960208   2.546367   1.765629   2.329678
    17  H    5.012242   4.933770   3.960335   1.770174   2.881215
                   11         12         13         14         15
    11  H    0.000000
    12  H    2.461945   0.000000
    13  H    2.442260   1.758929   0.000000
    14  H    4.289499   2.442310   2.461873   0.000000
    15  H    3.842108   3.060611   2.460326   1.751530   0.000000
    16  H    3.854927   3.302622   3.850636   3.074916   2.497668
    17  H    4.176489   2.618125   3.786765   2.549477   3.074242
                   16         17
    16  H    0.000000
    17  H    1.767678   0.000000
 Stoichiometry    C5H12
 Framework group  C1[X(C5H12)]
 Deg. of freedom    45
 Full point group                 C1      NOp   1
 Largest Abelian subgroup         C1      NOp   1
 Largest concise Abelian subgroup C1      NOp   1
                         Standard orientation:                         
 ---------------------------------------------------------------------
 Center     Atomic      Atomic             Coordinates (Angstroms)
 Number     Number       Type             X           Y           Z
 ---------------------------------------------------------------------
      1          6           0        1.779833   -0.715209    0.355274
      2          6           0        1.127474    0.257446   -0.625566
      3          6           0        0.000057    1.085122    0.000020
      4          6           0       -1.127424    0.257447    0.625551
      5          6           0       -1.779936   -0.715117   -0.355292
      6          1           0        2.643417   -1.213008   -0.095047
      7          1           0        2.124350   -0.190895    1.253815
      8          1           0        1.079480   -1.493867    0.674839
      9          1           0       -2.643374   -1.213060    0.095134
     10          1           0        0.744726   -0.296618   -1.491418
     11          1           0        1.888082    0.942758   -1.017489
     12          1           0       -0.427027    1.742491   -0.768755
     13          1           0        0.427169    1.742392    0.768835
     14          1           0       -1.887902    0.942790    1.017638
     15          1           0       -0.744645   -0.296738    1.491334
     16          1           0       -1.079592   -1.493664   -0.675121
     17          1           0       -2.124711   -0.190716   -1.253687
 ---------------------------------------------------------------------
 Rotational constants (GHZ):           7.4442739           3.0623739           2.7413474

 **********************************************************************

            Population analysis using the SCF density.

 **********************************************************************

 Orbital symmetries:
       Occupied  (A) (A) (A) (A) (A) (A) (A) (A) (A) (A) (A) (A)
                 (A) (A) (A) (A) (A) (A) (A) (A) (A)
       Virtual   (A) (A) (A) (A) (A) (A) (A) (A) (A) (A) (A) (A)
                 (A) (A) (A) (A) (A) (A) (A) (A) (A) (A) (A) (A)
                 (A) (A) (A) (A) (A) (A) (A) (A) (A) (A) (A) (A)
                 (A) (A) (A) (A) (A) (A) (A) (A) (A) (A) (A) (A)
                 (A) (A) (A) (A) (A) (A) (A) (A) (A) (A) (A) (A)
                 (A) (A) (A) (A) (A) (A) (A) (A) (A) (A) (A) (A)
                 (A) (A) (A) (A) (A) (A)
 The electronic state is 1-A.
 Alpha  occ. eigenvalues --  -10.53387 -10.53384 -10.53247 -10.52803 -10.52803
 Alpha  occ. eigenvalues --   -0.89884  -0.83502  -0.76387  -0.69816  -0.62667
 Alpha  occ. eigenvalues --   -0.53486  -0.52981  -0.47810  -0.46580  -0.46230
 Alpha  occ. eigenvalues --   -0.42465  -0.41224  -0.40517  -0.37335  -0.36824
 Alpha  occ. eigenvalues --   -0.36696
 Alpha virt. eigenvalues --    0.12219   0.16808   0.17626   0.18477   0.19582
 Alpha virt. eigenvalues --    0.21416   0.21617   0.22896   0.23689   0.25254
 Alpha virt. eigenvalues --    0.25999   0.26828   0.27609   0.28398   0.29355
 Alpha virt. eigenvalues --    0.34973   0.55614   0.55770   0.56993   0.58084
 Alpha virt. eigenvalues --    0.60323   0.62876   0.67877   0.70484   0.73890
 Alpha virt. eigenvalues --    0.74579   0.76411   0.80511   0.82392   0.92310
 Alpha virt. eigenvalues --    0.93531   0.94614   0.95003   0.95892   0.96233
 Alpha virt. eigenvalues --    0.97318   1.00862   1.01576   1.04446   1.04639
 Alpha virt. eigenvalues --    1.06089   1.06771   1.08788   1.12344   1.26971
 Alpha virt. eigenvalues --    1.47888   1.49753   1.54853   1.59176   1.66043
 Alpha virt. eigenvalues --    1.67161   1.71428   1.80187   1.88305   1.99659
 Alpha virt. eigenvalues --    2.01395   2.01757   2.05541   2.07050   2.12565
 Alpha virt. eigenvalues --    2.18435   2.23375   2.33280   2.36617   2.37918
 Alpha virt. eigenvalues --    2.38982   2.41653   2.48182   2.49271   2.58012
 Alpha virt. eigenvalues --    2.68059   2.69197   2.76301   4.15210   4.24830
 Alpha virt. eigenvalues --    4.38260   4.46034   4.55819
          Condensed to atoms (all electrons):
               1          2          3          4          5          6
     1  C    5.106335   0.360684  -0.055177  -0.002360  -0.003315   0.383140
     2  C    0.360684   5.025278   0.372168  -0.053233  -0.002358  -0.030320
     3  C   -0.055177   0.372168   5.041520   0.372166  -0.055166   0.004528
     4  C   -0.002360  -0.053233   0.372166   5.025280   0.360687   0.000104
     5  C   -0.003315  -0.002358  -0.055166   0.360687   5.106317   0.000003
     6  H    0.383140  -0.030320   0.004528   0.000104   0.000003   0.545473
     7  H    0.383936  -0.038813  -0.002688  -0.001442   0.000214  -0.028364
     8  H    0.382933  -0.033655  -0.006427   0.003619   0.000149  -0.028872
     9  H    0.000003   0.000104   0.004527  -0.030317   0.383142   0.000000
    10  H   -0.040766   0.385354  -0.037113  -0.008100   0.004956  -0.002014
    11  H   -0.039534   0.389365  -0.036380   0.005245  -0.000006  -0.003806
    12  H    0.005289  -0.038953   0.383495  -0.039673  -0.005055  -0.000131
    13  H   -0.005057  -0.039673   0.383497  -0.038950   0.005288  -0.000056
    14  H   -0.000006   0.005246  -0.036381   0.389362  -0.039528  -0.000001
    15  H    0.004959  -0.008102  -0.037115   0.385352  -0.040769  -0.000040
    16  H    0.000149   0.003621  -0.006428  -0.033657   0.382934  -0.000060
    17  H    0.000214  -0.001441  -0.002686  -0.038808   0.383935   0.000000
               7          8          9         10         11         12
     1  C    0.383936   0.382933   0.000003  -0.040766  -0.039534   0.005289
     2  C   -0.038813  -0.033655   0.000104   0.385354   0.389365  -0.038953
     3  C   -0.002688  -0.006427   0.004527  -0.037113  -0.036380   0.383495
     4  C   -0.001442   0.003619  -0.030317  -0.008100   0.005245  -0.039673
     5  C    0.000214   0.000149   0.383142   0.004956  -0.000006  -0.005055
     6  H   -0.028364  -0.028872   0.000000  -0.002014  -0.003806  -0.000131
     7  H    0.556408  -0.030826   0.000000   0.005035  -0.003385   0.000011
     8  H   -0.030826   0.554524  -0.000060  -0.005228   0.004764  -0.000065
     9  H    0.000000  -0.000060   0.545468  -0.000040  -0.000001  -0.000056
    10  H    0.005035  -0.005228  -0.000040   0.580274  -0.034779  -0.003534
    11  H   -0.003385   0.004764  -0.000001  -0.034779   0.574119  -0.002912
    12  H    0.000011  -0.000065  -0.000056  -0.003534  -0.002912   0.583044
    13  H    0.004597  -0.000157  -0.000131   0.005327  -0.004440  -0.032258
    14  H   -0.000041   0.000026  -0.003804  -0.000053  -0.000112  -0.004440
    15  H    0.000431  -0.000013  -0.002017   0.000082  -0.000053   0.005327
    16  H   -0.000042   0.002426  -0.028873  -0.000011   0.000026  -0.000157
    17  H   -0.000004  -0.000042  -0.028365   0.000430  -0.000041   0.004595
              13         14         15         16         17
     1  C   -0.005057  -0.000006   0.004959   0.000149   0.000214
     2  C   -0.039673   0.005246  -0.008102   0.003621  -0.001441
     3  C    0.383497  -0.036381  -0.037115  -0.006428  -0.002686
     4  C   -0.038950   0.389362   0.385352  -0.033657  -0.038808
     5  C    0.005288  -0.039528  -0.040769   0.382934   0.383935
     6  H   -0.000056  -0.000001  -0.000040  -0.000060   0.000000
     7  H    0.004597  -0.000041   0.000431  -0.000042  -0.000004
     8  H   -0.000157   0.000026  -0.000013   0.002426  -0.000042
     9  H   -0.000131  -0.003804  -0.002017  -0.028873  -0.028365
    10  H    0.005327  -0.000053   0.000082  -0.000011   0.000430
    11  H   -0.004440  -0.000112  -0.000053   0.000026  -0.000041
    12  H   -0.032258  -0.004440   0.005327  -0.000157   0.004595
    13  H    0.583034  -0.002913  -0.003534  -0.000065   0.000011
    14  H   -0.002913   0.574115  -0.034781   0.004764  -0.003386
    15  H   -0.003534  -0.034781   0.580292  -0.005227   0.005035
    16  H   -0.000065   0.004764  -0.005227   0.554523  -0.030825
    17  H    0.000011  -0.003386   0.005035  -0.030825   0.556406
 Mulliken charges:
               1
     1  C   -0.481427
     2  C   -0.295273
     3  C   -0.286340
     4  C   -0.295276
     5  C   -0.481428
     6  H    0.160414
     7  H    0.154970
     8  H    0.156901
     9  H    0.160419
    10  H    0.150180
    11  H    0.151929
    12  H    0.145472
    13  H    0.145478
    14  H    0.151932
    15  H    0.150173
    16  H    0.156902
    17  H    0.154972
 Sum of Mulliken charges =  -0.00000
 Mulliken charges with hydrogens summed into heavy atoms:
               1
     1  C   -0.009141
     2  C    0.006837
     3  C    0.004610
     4  C    0.006829
     5  C   -0.009135
 Electronic spatial extent (au):  <R**2>=            558.8726
 Charge=             -0.0000 electrons
 Dipole moment (field-independent basis, Debye):
    X=              0.0000    Y=              0.0398    Z=              0.0000  Tot=              0.0398
 Quadrupole moment (field-independent basis, Debye-Ang):
   XX=            -34.7955   YY=            -34.9719   ZZ=            -34.9786
   XY=              0.0002   XZ=             -0.1289   YZ=              0.0002
 Traceless Quadrupole moment (field-independent basis, Debye-Ang):
   XX=              0.1198   YY=             -0.0566   ZZ=             -0.0632
   XY=              0.0002   XZ=             -0.1289   YZ=              0.0002
 Octapole moment (field-independent basis, Debye-Ang**2):
  XXX=              0.0002  YYY=              0.0387  ZZZ=              0.0000  XYY=             -0.0004
  XXY=              0.5977  XXZ=             -0.0002  XZZ=             -0.0001  YZZ=              0.5810
  YYZ=              0.0001  XYZ=              1.0365
 Hexadecapole moment (field-independent basis, Debye-Ang**3):
 XXXX=           -464.6307 YYYY=           -182.3849 ZZZZ=           -123.4230 XXXY=              0.0008
 XXXZ=             -4.7833 YYYX=              0.0009 YYYZ=              0.0003 ZZZX=              1.7054
 ZZZY=              0.0007 XXYY=           -106.8484 XXZZ=            -98.4884 YYZZ=            -50.0093
 XXYZ=             -0.0002 YYXZ=             -1.5910 ZZXY=             -0.0002
 N-N= 1.918391775598D+02 E-N=-8.397126224328D+02  KE= 1.958205833894D+02
 1\1\GINC-ROBERTS-MACBOOK-PRO-2\FOpt\RM062X\6-31G(d)\C5H12\ROBERT.PATON
 \22-Sep-2018\0\\# opt=(maxcycles=160) M062X/6-31G(d) emp=GD3\\Generate
 d by prepare_file.py\\0,1\C,0.2353293462,-0.264184735,-0.4107180765\C,
 0.8837663618,1.0929447245,-0.1434966221\C,1.6837700432,1.1365570148,1.
 1624768403\C,0.8808721154,0.7702485219,2.4149626608\C,-0.3542704893,1.
 6456472923,2.6194262399\H,-0.2393005581,-0.2898647796,-1.3958257574\H,
 0.9808737435,-1.0666086463,-0.3753259502\H,-0.5345837201,-0.4950931197
 ,0.3328126983\H,-0.8437800256,1.4245568516,3.5722409334\H,0.1118663703
 ,1.8721907815,-0.1321619117\H,1.5548892701,1.3444206528,-0.973035606\H
 ,2.100637213,2.1442167499,1.2905140211\H,2.5398827271,0.4544592578,1.0
 769380141\H,1.5370102535,0.8580588113,3.2887637452\H,0.5796399682,-0.2
 834356253,2.3677380121\H,-1.092261983,1.4911112802,1.8254519915\H,-0.0
 843406362,2.7077749672,2.6182387672\\Version=EM64M-G16RevA.03\State=1-
 A\HF=-197.6495828\RMSD=3.432e-09\RMSF=6.304e-06\Dipole=0.0151455,0.003
 8706,0.0005063\Quadrupole=-0.0453781,-0.0910559,0.136434,0.0131015,-0.
 0003778,-0.0221381\PG=C01 [X(C5H12)]\\@


 IN THE WOODS WE RETURN TO REASON AND FAITH.

                                 -- EMERSON
 Job cpu time:       0 days  0 hours 36 minutes  9.1 seconds.
 Elapsed time:       0 days  0 hours  9 minutes 31.4 seconds.
 File lengths (MBytes):  RWF=     10 Int=      0 D2E=      0 Chk=      2 Scr=      1
 Normal termination of Gaussian 16 at Sat Sep 22 01:32:48 2018.
