 Entering Gaussian System, Link 0=g16
 Initial command:
 /Applications/g16/l1.exe "/var/folders/hc/gtglrcdn25lc_0x4jfkqf1nh0000gn/T/Gau-26376.inp" -scrdir="/var/folders/hc/gtglrcdn25lc_0x4jfkqf1nh0000gn/T/"
 Entering Link 1 = /Applications/g16/l1.exe PID=     26377.
  
 Copyright (c) 1988,1990,1992,1993,1995,1998,2003,2009,2016,
            Gaussian, Inc.  All Rights Reserved.
  
 This is part of the Gaussian(R) 16 program.  It is based on
 the Gaussian(R) 09 system (copyright 2009, Gaussian, Inc.),
 the Gaussian(R) 03 system (copyright 2003, Gaussian, Inc.),
 the Gaussian(R) 98 system (copyright 1998, Gaussian, Inc.),
 the Gaussian(R) 94 system (copyright 1995, Gaussian, Inc.),
 the Gaussian 92(TM) system (copyright 1992, Gaussian, Inc.),
 the Gaussian 90(TM) system (copyright 1990, Gaussian, Inc.),
 the Gaussian 88(TM) system (copyright 1988, Gaussian, Inc.),
 the Gaussian 86(TM) system (copyright 1986, Carnegie Mellon
 University), and the Gaussian 82(TM) system (copyright 1983,
 Carnegie Mellon University). Gaussian is a federally registered
 trademark of Gaussian, Inc.
  
 This software contains proprietary and confidential information,
 including trade secrets, belonging to Gaussian, Inc.
  
 This software is provided under written license and may be
 used, copied, transmitted, or stored only in accord with that
 written license.
  
 The following legend is applicable only to US Government
 contracts under FAR:
  
                    RESTRICTED RIGHTS LEGEND
  
 Use, reproduction and disclosure by the US Government is
 subject to restrictions as set forth in subparagraphs (a)
 and (c) of the Commercial Computer Software - Restricted
 Rights clause in FAR 52.227-19.
  
 Gaussian, Inc.
 340 Quinnipiac St., Bldg. 40, Wallingford CT 06492
  
  
 ---------------------------------------------------------------
 Warning -- This program may not be used in any manner that
 competes with the business of Gaussian, Inc. or will provide
 assistance to any competitor of Gaussian, Inc.  The licensee
 of this program is prohibited from giving any competitor of
 Gaussian, Inc. access to this program.  By using this program,
 the user acknowledges that Gaussian, Inc. is engaged in the
 business of creating and licensing software in the field of
 computational chemistry and represents and warrants to the
 licensee that it is not a competitor of Gaussian, Inc. and that
 it will not use this program in any manner prohibited above.
 ---------------------------------------------------------------
  

 Cite this work as:
 Gaussian 16, Revision A.03,
 M. J. Frisch, G. W. Trucks, H. B. Schlegel, G. E. Scuseria, 
 M. A. Robb, J. R. Cheeseman, G. Scalmani, V. Barone, 
 G. A. Petersson, H. Nakatsuji, X. Li, M. Caricato, A. V. Marenich, 
 J. Bloino, B. G. Janesko, R. Gomperts, B. Mennucci, H. P. Hratchian, 
 J. V. Ortiz, A. F. Izmaylov, J. L. Sonnenberg, D. Williams-Young, 
 F. Ding, F. Lipparini, F. Egidi, J. Goings, B. Peng, A. Petrone, 
 T. Henderson, D. Ranasinghe, V. G. Zakrzewski, J. Gao, N. Rega, 
 G. Zheng, W. Liang, M. Hada, M. Ehara, K. Toyota, R. Fukuda, 
 J. Hasegawa, M. Ishida, T. Nakajima, Y. Honda, O. Kitao, H. Nakai, 
 T. Vreven, K. Throssell, J. A. Montgomery, Jr., J. E. Peralta, 
 F. Ogliaro, M. J. Bearpark, J. J. Heyd, E. N. Brothers, K. N. Kudin, 
 V. N. Staroverov, T. A. Keith, R. Kobayashi, J. Normand, 
 K. Raghavachari, A. P. Rendell, J. C. Burant, S. S. Iyengar, 
 J. Tomasi, M. Cossi, J. M. Millam, M. Klene, C. Adamo, R. Cammi, 
 J. W. Ochterski, R. L. Martin, K. Morokuma, O. Farkas, 
 J. B. Foresman, and D. J. Fox, Gaussian, Inc., Wallingford CT, 2016.
 
 ******************************************
 Gaussian 16:  EM64M-G16RevA.03 25-Dec-2016
                21-Sep-2018 
 ******************************************
 %mem=1GB
 %nprocshared=4
 Will use up to    4 processors via shared memory.
 %chk=pentane_10.chk
 --------------------------------------------
 # opt=(maxcycles=160) M062X/6-31G(d) emp=GD3
 --------------------------------------------
 1/6=160,18=20,19=15,26=3,38=1/1,3;
 2/9=110,12=2,17=6,18=5,40=1/2;
 3/5=1,6=6,7=1,11=2,25=1,30=1,71=1,74=-55,124=31/1,2,3;
 4//1;
 5/5=2,38=5/2;
 6/7=2,8=2,9=2,10=2,28=1/1;
 7//1,2,3,16;
 1/6=160,18=20,19=15,26=3/3(2);
 2/9=110/2;
 99//99;
 2/9=110/2;
 3/5=1,6=6,7=1,11=2,25=1,30=1,71=1,74=-55,124=31/1,2,3;
 4/5=5,16=3,69=1/1;
 5/5=2,38=5/2;
 7//1,2,3,16;
 1/6=160,18=20,19=15,26=3/3(-5);
 2/9=110/2;
 6/7=2,8=2,9=2,10=2,19=2,28=1/1;
 99/9=1/99;
 ----------------------------
 Generated by prepare_file.py
 ----------------------------
 Symbolic Z-matrix:
 Charge =  0 Multiplicity = 1
 C                     0.        0.        0. 
 C                     1.171     0.975    -0.22 
 C                     1.752     1.396     1.143 
 C                     0.968     0.701     2.271 
 C                     1.929     0.339     3.418 
 H                    -0.785     0.244    -0.653 
 H                     0.322    -0.981    -0.19 
 H                    -0.335     0.073     0.993 
 H                     1.394    -0.136     4.187 
 H                     0.828     1.825    -0.731 
 H                     1.917     0.503    -0.787 
 H                     1.671     2.438     1.252 
 H                     2.762     1.116     1.196 
 H                     0.519    -0.172     1.9 
 H                     0.224     1.35      2.631 
 H                     2.375     1.213     3.792 
 H                     2.674    -0.309     3.059 
 

 GradGradGradGradGradGradGradGradGradGradGradGradGradGradGradGradGradGrad
 Berny optimization.
 Initialization pass.
                           ----------------------------
                           !    Initial Parameters    !
                           ! (Angstroms and Degrees)  !
 --------------------------                            --------------------------
 ! Name  Definition              Value          Derivative Info.                !
 --------------------------------------------------------------------------------
 ! R1    R(1,2)                  1.5396         estimate D2E/DX2                !
 ! R2    R(1,6)                  1.0498         estimate D2E/DX2                !
 ! R3    R(1,7)                  1.0498         estimate D2E/DX2                !
 ! R4    R(1,8)                  1.0505         estimate D2E/DX2                !
 ! R5    R(2,3)                  1.5403         estimate D2E/DX2                !
 ! R6    R(2,10)                 1.0494         estimate D2E/DX2                !
 ! R7    R(2,11)                 1.0492         estimate D2E/DX2                !
 ! R8    R(3,4)                  1.5395         estimate D2E/DX2                !
 ! R9    R(3,12)                 1.0508         estimate D2E/DX2                !
 ! R10   R(3,13)                 1.0494         estimate D2E/DX2                !
 ! R11   R(4,5)                  1.5395         estimate D2E/DX2                !
 ! R12   R(4,14)                 1.0495         estimate D2E/DX2                !
 ! R13   R(4,15)                 1.0509         estimate D2E/DX2                !
 ! R14   R(5,9)                  1.0503         estimate D2E/DX2                !
 ! R15   R(5,16)                 1.0501         estimate D2E/DX2                !
 ! R16   R(5,17)                 1.0506         estimate D2E/DX2                !
 ! A1    A(2,1,6)              109.4301         estimate D2E/DX2                !
 ! A2    A(2,1,7)              109.428          estimate D2E/DX2                !
 ! A3    A(2,1,8)              109.4882         estimate D2E/DX2                !
 ! A4    A(6,1,7)              109.5086         estimate D2E/DX2                !
 ! A5    A(6,1,8)              109.472          estimate D2E/DX2                !
 ! A6    A(7,1,8)              109.5003         estimate D2E/DX2                !
 ! A7    A(1,2,3)              109.4839         estimate D2E/DX2                !
 ! A8    A(1,2,10)             109.5077         estimate D2E/DX2                !
 ! A9    A(1,2,11)             109.459          estimate D2E/DX2                !
 ! A10   A(3,2,10)             109.438          estimate D2E/DX2                !
 ! A11   A(3,2,11)             109.4492         estimate D2E/DX2                !
 ! A12   A(10,2,11)            109.4895         estimate D2E/DX2                !
 ! A13   A(2,3,4)              109.4437         estimate D2E/DX2                !
 ! A14   A(2,3,12)             109.496          estimate D2E/DX2                !
 ! A15   A(2,3,13)             109.5596         estimate D2E/DX2                !
 ! A16   A(4,3,12)             109.4146         estimate D2E/DX2                !
 ! A17   A(4,3,13)             109.4307         estimate D2E/DX2                !
 ! A18   A(12,3,13)            109.4827         estimate D2E/DX2                !
 ! A19   A(3,4,5)              109.521          estimate D2E/DX2                !
 ! A20   A(3,4,14)             109.5357         estimate D2E/DX2                !
 ! A21   A(3,4,15)             109.4354         estimate D2E/DX2                !
 ! A22   A(5,4,14)             109.5629         estimate D2E/DX2                !
 ! A23   A(5,4,15)             109.3854         estimate D2E/DX2                !
 ! A24   A(14,4,15)            109.3866         estimate D2E/DX2                !
 ! A25   A(4,5,9)              109.503          estimate D2E/DX2                !
 ! A26   A(4,5,16)             109.5583         estimate D2E/DX2                !
 ! A27   A(4,5,17)             109.4558         estimate D2E/DX2                !
 ! A28   A(9,5,16)             109.389          estimate D2E/DX2                !
 ! A29   A(9,5,17)             109.4167         estimate D2E/DX2                !
 ! A30   A(16,5,17)            109.5044         estimate D2E/DX2                !
 ! D1    D(6,1,2,3)            137.7376         estimate D2E/DX2                !
 ! D2    D(6,1,2,10)            17.7482         estimate D2E/DX2                !
 ! D3    D(6,1,2,11)          -102.2891         estimate D2E/DX2                !
 ! D4    D(7,1,2,3)           -102.2681         estimate D2E/DX2                !
 ! D5    D(7,1,2,10)           137.7425         estimate D2E/DX2                !
 ! D6    D(7,1,2,11)            17.7052         estimate D2E/DX2                !
 ! D7    D(8,1,2,3)             17.7515         estimate D2E/DX2                !
 ! D8    D(8,1,2,10)          -102.2379         estimate D2E/DX2                !
 ! D9    D(8,1,2,11)           137.7248         estimate D2E/DX2                !
 ! D10   D(1,2,3,4)              0.0128         estimate D2E/DX2                !
 ! D11   D(1,2,3,12)          -119.9162         estimate D2E/DX2                !
 ! D12   D(1,2,3,13)           120.0003         estimate D2E/DX2                !
 ! D13   D(10,2,3,4)           120.0448         estimate D2E/DX2                !
 ! D14   D(10,2,3,12)            0.1159         estimate D2E/DX2                !
 ! D15   D(10,2,3,13)         -119.9676         estimate D2E/DX2                !
 ! D16   D(11,2,3,4)          -119.9666         estimate D2E/DX2                !
 ! D17   D(11,2,3,12)          120.1045         estimate D2E/DX2                !
 ! D18   D(11,2,3,13)            0.021          estimate D2E/DX2                !
 ! D19   D(2,3,4,5)            144.0206         estimate D2E/DX2                !
 ! D20   D(2,3,4,14)            23.8379         estimate D2E/DX2                !
 ! D21   D(2,3,4,15)           -96.0759         estimate D2E/DX2                !
 ! D22   D(12,3,4,5)           -96.0005         estimate D2E/DX2                !
 ! D23   D(12,3,4,14)          143.8168         estimate D2E/DX2                !
 ! D24   D(12,3,4,15)           23.903          estimate D2E/DX2                !
 ! D25   D(13,3,4,5)            23.954          estimate D2E/DX2                !
 ! D26   D(13,3,4,14)          -96.2286         estimate D2E/DX2                !
 ! D27   D(13,3,4,15)          143.8575         estimate D2E/DX2                !
 ! D28   D(3,4,5,9)           -179.944          estimate D2E/DX2                !
 ! D29   D(3,4,5,16)            60.0839         estimate D2E/DX2                !
 ! D30   D(3,4,5,17)           -60.0007         estimate D2E/DX2                !
 ! D31   D(14,4,5,9)           -59.7779         estimate D2E/DX2                !
 ! D32   D(14,4,5,16)         -179.7501         estimate D2E/DX2                !
 ! D33   D(14,4,5,17)           60.1653         estimate D2E/DX2                !
 ! D34   D(15,4,5,9)            60.1219         estimate D2E/DX2                !
 ! D35   D(15,4,5,16)          -59.8502         estimate D2E/DX2                !
 ! D36   D(15,4,5,17)         -179.9348         estimate D2E/DX2                !
 --------------------------------------------------------------------------------
 Trust Radius=3.00D-01 FncErr=1.00D-07 GrdErr=1.00D-06 EigMax=2.50D+02 EigMin=1.00D-04
 Number of steps in this run=    102 maximum allowed number of steps=    102.
 GradGradGradGradGradGradGradGradGradGradGradGradGradGradGradGradGradGrad

                          Input orientation:                          
 ---------------------------------------------------------------------
 Center     Atomic      Atomic             Coordinates (Angstroms)
 Number     Number       Type             X           Y           Z
 ---------------------------------------------------------------------
      1          6           0        0.000000    0.000000    0.000000
      2          6           0        1.171000    0.975000   -0.220000
      3          6           0        1.752000    1.396000    1.143000
      4          6           0        0.968000    0.701000    2.271000
      5          6           0        1.929000    0.339000    3.418000
      6          1           0       -0.785000    0.244000   -0.653000
      7          1           0        0.322000   -0.981000   -0.190000
      8          1           0       -0.335000    0.073000    0.993000
      9          1           0        1.394000   -0.136000    4.187000
     10          1           0        0.828000    1.825000   -0.731000
     11          1           0        1.917000    0.503000   -0.787000
     12          1           0        1.671000    2.438000    1.252000
     13          1           0        2.762000    1.116000    1.196000
     14          1           0        0.519000   -0.172000    1.900000
     15          1           0        0.224000    1.350000    2.631000
     16          1           0        2.375000    1.213000    3.792000
     17          1           0        2.674000   -0.309000    3.059000
 ---------------------------------------------------------------------
                    Distance matrix (angstroms):
                    1          2          3          4          5
     1  C    0.000000
     2  C    1.539567   0.000000
     3  C    2.514909   1.540315   0.000000
     4  C    2.566294   2.514233   1.539502   0.000000
     5  C    3.939376   3.770160   2.514797   1.539537   0.000000
     6  H    1.049843   2.132554   3.314979   3.439714   4.893655
     7  H    1.049831   2.132519   3.077648   3.050076   4.164434
     8  H    1.050525   2.133778   2.475560   1.930149   3.328224
     9  H    4.415054   4.550352   3.426532   2.133800   1.050339
    10  H    2.133207   1.049414   2.133001   3.208579   4.542532
    11  H    2.132432   1.049185   2.132973   3.207985   4.208214
    12  H    3.209920   2.134749   1.050812   2.133012   3.027197
    13  H    3.210065   2.134530   1.049433   2.132202   2.496979
    14  H    1.977105   2.497021   2.133533   1.049462   2.133904
    15  H    2.965609   3.027480   2.133318   1.050874   2.132725
    16  H    4.635866   4.195522   2.727420   2.134299   1.050080
    17  H    4.074707   3.828773   2.725466   2.133420   1.050624
                    6          7          8          9         10
     6  H    0.000000
     7  H    1.714772   0.000000
     8  H    1.714951   1.715242   0.000000
     9  H    5.321470   4.584903   3.637961   0.000000
    10  H    2.259959   2.902129   2.719237   5.324716   0.000000
    11  H    2.717690   2.258913   2.902551   5.042076   1.713692
    12  H    3.804550   3.948256   3.111968   3.913621   2.240247
    13  H    4.093946   3.503142   3.274212   3.519234   2.820703
    14  H    2.896771   2.249753   1.269642   2.448937   3.317477
    15  H    3.609151   3.660766   2.150873   2.449129   3.448693
    16  H    5.539186   4.988464   4.059323   1.714114   4.819262
    17  H    5.103865   4.066877   3.669927   1.714851   4.725016
                   11         12         13         14         15
    11  H    0.000000
    12  H    2.821748   0.000000
    13  H    2.241000   1.714964   0.000000
    14  H    3.103224   2.925595   2.680599   0.000000
    15  H    3.907222   2.275784   2.924966   1.714022   0.000000
    16  H    4.656297   2.906517   2.626479   2.990422   2.448161
    17  H    4.003012   3.437625   2.347155   2.450729   2.989643
                   16         17
    16  H    0.000000
    17  H    1.715568   0.000000
 Stoichiometry    C5H12
 Framework group  C1[X(C5H12)]
 Deg. of freedom    45
 Full point group                 C1      NOp   1
 Largest Abelian subgroup         C1      NOp   1
 Largest concise Abelian subgroup C1      NOp   1
                         Standard orientation:                         
 ---------------------------------------------------------------------
 Center     Atomic      Atomic             Coordinates (Angstroms)
 Number     Number       Type             X           Y           Z
 ---------------------------------------------------------------------
      1          6           0        1.656955   -0.902345    0.063044
      2          6           0        1.459505    0.622531    0.140721
      3          6           0       -0.020405    0.962766   -0.117501
      4          6           0       -0.808821   -0.335799   -0.366892
      5          6           0       -2.216587   -0.208118    0.243081
      6          1           0        2.540379   -1.113744   -0.463303
      7          1           0        1.724764   -1.295591    1.034076
      8          1           0        0.840204   -1.336582   -0.434913
      9          1           0       -2.753900   -1.094563    0.073610
     10          1           0        2.057045    1.090628   -0.583917
     11          1           0        1.734880    0.962496    1.094336
     12          1           0       -0.095257    1.584385   -0.961416
     13          1           0       -0.418111    1.457636    0.718108
     14          1           0       -0.305439   -1.142691    0.076846
     15          1           0       -0.890642   -0.502012   -1.401307
     16          1           0       -2.721751    0.596616   -0.203999
     17          1           0       -2.136050   -0.040792    1.277163
 ---------------------------------------------------------------------
 Rotational constants (GHZ):           9.5313069           2.8951657           2.4567512
 Standard basis: 6-31G(d) (6D, 7F)
 There are    99 symmetry adapted cartesian basis functions of A   symmetry.
 There are    99 symmetry adapted basis functions of A   symmetry.
    99 basis functions,   188 primitive gaussians,    99 cartesian basis functions
    21 alpha electrons       21 beta electrons
       nuclear repulsion energy       194.8257209086 Hartrees.
 NAtoms=   17 NActive=   17 NUniq=   17 SFac= 1.00D+00 NAtFMM=   60 NAOKFM=F Big=F
 Integral buffers will be    131072 words long.
 Raffenetti 2 integral format.
 Two-electron integral symmetry is turned on.
 Nuclear repulsion after empirical dispersion term =      194.8254398892 Hartrees.
 One-electron integrals computed using PRISM.
 NBasis=    99 RedAO= T EigKep=  3.32D-03  NBF=    99
 NBsUse=    99 1.00D-06 EigRej= -1.00D+00 NBFU=    99
 ExpMin= 1.61D-01 ExpMax= 3.05D+03 ExpMxC= 4.57D+02 IAcc=3 IRadAn=         5 AccDes= 0.00D+00
 Harris functional with IExCor= 1009 and IRadAn=       5 diagonalized for initial guess.
 HarFok:  IExCor= 1009 AccDes= 0.00D+00 IRadAn=         5 IDoV= 1 UseB2=F ITyADJ=14
 ICtDFT=  3500011 ScaDFX=  1.000000  1.000000  1.000000  1.000000
 FoFCou: FMM=F IPFlag=           0 FMFlag=      100000 FMFlg1=           0
         NFxFlg=           0 DoJE=T BraDBF=F KetDBF=T FulRan=T
         wScrn=  0.000000 ICntrl=       500 IOpCl=  0 I1Cent=   200000004 NGrid=           0
         NMat0=    1 NMatS0=      1 NMatT0=    0 NMatD0=    1 NMtDS0=    0 NMtDT0=    0
 Petite list used in FoFCou.
 Keep R1 ints in memory in canonical form, NReq=15944043.
 Requested convergence on RMS density matrix=1.00D-08 within 128 cycles.
 Requested convergence on MAX density matrix=1.00D-06.
 Requested convergence on             energy=1.00D-06.
 No special actions if energy rises.
 Integral accuracy reduced to 1.0D-05 until final iterations.
 Initial convergence to 1.0D-05 achieved.  Increase integral accuracy.
 SCF Done:  E(RM062X) =  -197.582207743     A.U. after   12 cycles
            NFock= 12  Conv=0.36D-08     -V/T= 2.0041

 **********************************************************************

            Population analysis using the SCF density.

 **********************************************************************

 Orbital symmetries:
       Occupied  (A) (A) (A) (A) (A) (A) (A) (A) (A) (A) (A) (A)
                 (A) (A) (A) (A) (A) (A) (A) (A) (A)
       Virtual   (A) (A) (A) (A) (A) (A) (A) (A) (A) (A) (A) (A)
                 (A) (A) (A) (A) (A) (A) (A) (A) (A) (A) (A) (A)
                 (A) (A) (A) (A) (A) (A) (A) (A) (A) (A) (A) (A)
                 (A) (A) (A) (A) (A) (A) (A) (A) (A) (A) (A) (A)
                 (A) (A) (A) (A) (A) (A) (A) (A) (A) (A) (A) (A)
                 (A) (A) (A) (A) (A) (A) (A) (A) (A) (A) (A) (A)
                 (A) (A) (A) (A) (A) (A)
 The electronic state is 1-A.
 Alpha  occ. eigenvalues --  -10.51926 -10.51815 -10.51525 -10.50930 -10.50266
 Alpha  occ. eigenvalues --   -0.91149  -0.83757  -0.76904  -0.71967  -0.63749
 Alpha  occ. eigenvalues --   -0.55770  -0.53250  -0.49520  -0.48238  -0.45470
 Alpha  occ. eigenvalues --   -0.44312  -0.41471  -0.38241  -0.37562  -0.36651
 Alpha  occ. eigenvalues --   -0.35496
 Alpha virt. eigenvalues --    0.13590   0.16239   0.17401   0.19110   0.20684
 Alpha virt. eigenvalues --    0.22702   0.23445   0.24369   0.25612   0.25687
 Alpha virt. eigenvalues --    0.27300   0.27543   0.30793   0.32559   0.33073
 Alpha virt. eigenvalues --    0.36832   0.55653   0.57396   0.58992   0.60912
 Alpha virt. eigenvalues --    0.63634   0.66330   0.67378   0.71329   0.73580
 Alpha virt. eigenvalues --    0.75175   0.76911   0.80445   0.86648   0.89696
 Alpha virt. eigenvalues --    0.92472   0.96966   0.97257   0.99621   0.99888
 Alpha virt. eigenvalues --    1.01324   1.02337   1.02809   1.06239   1.07214
 Alpha virt. eigenvalues --    1.07627   1.10842   1.12721   1.17578   1.24757
 Alpha virt. eigenvalues --    1.40676   1.48343   1.51494   1.59428   1.70424
 Alpha virt. eigenvalues --    1.79212   1.86365   1.86737   1.92171   1.99472
 Alpha virt. eigenvalues --    2.01721   2.08525   2.09449   2.11817   2.13801
 Alpha virt. eigenvalues --    2.24673   2.25808   2.34212   2.40020   2.42564
 Alpha virt. eigenvalues --    2.43989   2.44735   2.48602   2.57663   2.63461
 Alpha virt. eigenvalues --    2.67269   2.73089   2.81572   4.18946   4.27649
 Alpha virt. eigenvalues --    4.36967   4.48925   4.63453
          Condensed to atoms (all electrons):
               1          2          3          4          5          6
     1  C    5.176702   0.375256  -0.053742  -0.065602   0.003848   0.380404
     2  C    0.375256   5.043070   0.342619  -0.048441   0.004770  -0.033993
     3  C   -0.053742   0.342619   5.061752   0.387173  -0.050974   0.004614
     4  C   -0.065602  -0.048441   0.387173   5.098078   0.358189   0.003470
     5  C    0.003848   0.004770  -0.050974   0.358189   5.077855  -0.000069
     6  H    0.380404  -0.033993   0.004614   0.003470  -0.000069   0.543106
     7  H    0.392095  -0.035790   0.003606  -0.002213  -0.000224  -0.025563
     8  H    0.417876  -0.042450  -0.019199  -0.034126   0.002022  -0.025876
     9  H    0.000064  -0.000241   0.005562  -0.034515   0.387377  -0.000001
    10  H   -0.038747   0.397830  -0.033622   0.002164  -0.000106  -0.008277
    11  H   -0.038140   0.398620  -0.036657   0.002512  -0.000104   0.002517
    12  H    0.002512  -0.033961   0.391349  -0.033913   0.001281  -0.000090
    13  H    0.002958  -0.036689   0.400722  -0.048424  -0.006640  -0.000140
    14  H   -0.038891  -0.015878  -0.045194   0.427687  -0.036618   0.002087
    15  H   -0.002798   0.003344  -0.037090   0.392354  -0.035690  -0.000312
    16  H   -0.000109   0.000049  -0.004341  -0.034356   0.389690   0.000002
    17  H   -0.000078   0.000209  -0.007210  -0.034827   0.392556  -0.000003
               7          8          9         10         11         12
     1  C    0.392095   0.417876   0.000064  -0.038747  -0.038140   0.002512
     2  C   -0.035790  -0.042450  -0.000241   0.397830   0.398620  -0.033961
     3  C    0.003606  -0.019199   0.005562  -0.033622  -0.036657   0.391349
     4  C   -0.002213  -0.034126  -0.034515   0.002164   0.002512  -0.033913
     5  C   -0.000224   0.002022   0.387377  -0.000106  -0.000104   0.001281
     6  H   -0.025563  -0.025876  -0.000001  -0.008277   0.002517  -0.000090
     7  H    0.542927  -0.036819   0.000005   0.004596  -0.010447  -0.000185
     8  H   -0.036819   0.566156   0.000086   0.001159   0.004989   0.000465
     9  H    0.000005   0.000086   0.548581   0.000005   0.000004  -0.000214
    10  H    0.004596   0.001159   0.000005   0.551472  -0.032303  -0.010578
    11  H   -0.010447   0.004989   0.000004  -0.032303   0.552839   0.003712
    12  H   -0.000185   0.000465  -0.000214  -0.010578   0.003712   0.553608
    13  H    0.000083   0.000632   0.000399   0.003876  -0.010559  -0.032758
    14  H    0.002149  -0.021735  -0.003474   0.000415   0.000378   0.005315
    15  H    0.000379   0.003676  -0.002610   0.000033  -0.000195  -0.009912
    16  H   -0.000003  -0.000095  -0.029620  -0.000004   0.000001   0.001496
    17  H    0.000057   0.000181  -0.029350  -0.000005  -0.000035  -0.000072
              13         14         15         16         17
     1  C    0.002958  -0.038891  -0.002798  -0.000109  -0.000078
     2  C   -0.036689  -0.015878   0.003344   0.000049   0.000209
     3  C    0.400722  -0.045194  -0.037090  -0.004341  -0.007210
     4  C   -0.048424   0.427687   0.392354  -0.034356  -0.034827
     5  C   -0.006640  -0.036618  -0.035690   0.389690   0.392556
     6  H   -0.000140   0.002087  -0.000312   0.000002  -0.000003
     7  H    0.000083   0.002149   0.000379  -0.000003   0.000057
     8  H    0.000632  -0.021735   0.003676  -0.000095   0.000181
     9  H    0.000399  -0.003474  -0.002610  -0.029620  -0.029350
    10  H    0.003876   0.000415   0.000033  -0.000004  -0.000005
    11  H   -0.010559   0.000378  -0.000195   0.000001  -0.000035
    12  H   -0.032758   0.005315  -0.009912   0.001496  -0.000072
    13  H    0.558737  -0.000254   0.005303  -0.000446   0.005458
    14  H   -0.000254   0.594249  -0.045400   0.005149  -0.005380
    15  H    0.005303  -0.045400   0.566876  -0.004914   0.005208
    16  H   -0.000446   0.005149  -0.004914   0.548990  -0.030401
    17  H    0.005458  -0.005380   0.005208  -0.030401   0.545197
 Mulliken charges:
               1
     1  C   -0.513608
     2  C   -0.318324
     3  C   -0.309370
     4  C   -0.335208
     5  C   -0.487164
     6  H    0.158125
     7  H    0.165346
     8  H    0.183056
     9  H    0.157942
    10  H    0.162094
    11  H    0.162870
    12  H    0.161946
    13  H    0.157742
    14  H    0.175397
    15  H    0.161747
    16  H    0.158914
    17  H    0.158496
 Sum of Mulliken charges =   0.00000
 Mulliken charges with hydrogens summed into heavy atoms:
               1
     1  C   -0.007082
     2  C    0.006640
     3  C    0.010318
     4  C    0.001936
     5  C   -0.011812
 Electronic spatial extent (au):  <R**2>=            571.9445
 Charge=             -0.0000 electrons
 Dipole moment (field-independent basis, Debye):
    X=              0.0457    Y=              0.0158    Z=             -0.0530  Tot=              0.0717
 Quadrupole moment (field-independent basis, Debye-Ang):
   XX=            -36.0629   YY=            -34.7399   ZZ=            -33.5889
   XY=              0.3157   XZ=              0.1720   YZ=             -0.1648
 Traceless Quadrupole moment (field-independent basis, Debye-Ang):
   XX=             -1.2657   YY=              0.0573   ZZ=              1.2083
   XY=              0.3157   XZ=              0.1720   YZ=             -0.1648
 Octapole moment (field-independent basis, Debye-Ang**2):
  XXX=              1.9633  YYY=              0.0172  ZZZ=              0.5206  XYY=             -1.2623
  XXY=              0.7993  XXZ=             -1.5678  XZZ=              0.6430  YZZ=              0.7958
  YYZ=             -0.2436  XYZ=             -0.3327
 Hexadecapole moment (field-independent basis, Debye-Ang**3):
 XXXX=           -544.3269 YYYY=           -174.2672 ZZZZ=            -74.0162 XXXY=              1.1537
 XXXZ=             -0.0336 YYYX=              2.8329 YYYZ=             -0.8818 ZZZX=              1.1836
 ZZZY=             -0.3690 XXYY=           -117.6041 XXZZ=            -99.9484 YYZZ=            -40.0146
 XXYZ=             -0.3742 YYXZ=              0.4346 ZZXY=             -0.0138
 N-N= 1.948254398892D+02 E-N=-8.464029823072D+02  KE= 1.967694113407D+02
 Calling FoFJK, ICntrl=      2127 FMM=F ISym2X=0 I1Cent= 0 IOpClX= 0 NMat=1 NMatS=1 NMatT=0.
 ***** Axes restored to original set *****
 -------------------------------------------------------------------
 Center     Atomic                   Forces (Hartrees/Bohr)
 Number     Number              X              Y              Z
 -------------------------------------------------------------------
      1        6           0.010990213    0.025940380   -0.032883775
      2        6          -0.018738521   -0.012928500    0.034487377
      3        6          -0.036153727   -0.027465680   -0.002665179
      4        6           0.070176861    0.009878130    0.028242539
      5        6          -0.030297730    0.011536897   -0.024663392
      6        1          -0.025178462    0.002051830   -0.023085958
      7        1           0.005469930   -0.033260590   -0.002926642
      8        1          -0.032311993   -0.000036473   -0.007645340
      9        1          -0.013271136   -0.015174932    0.026673903
     10        1          -0.008642635    0.025056647   -0.018927887
     11        1           0.022098293   -0.011337458   -0.021284627
     12        1           0.002418171    0.031498767    0.004880941
     13        1           0.032677772   -0.006156917    0.003498870
     14        1           0.008067802   -0.021862116    0.021005157
     15        1          -0.027716468    0.016540046    0.010512926
     16        1           0.016561514    0.025641963    0.014193793
     17        1           0.023850116   -0.019921993   -0.009412709
 -------------------------------------------------------------------
 Cartesian Forces:  Max     0.070176861 RMS     0.022692120

 GradGradGradGradGradGradGradGradGradGradGradGradGradGradGradGradGradGrad
 Berny optimization.
 FormGI is forming the generalized inverse of G from B-inverse, IUseBI=4.
 Internal  Forces:  Max     0.173439091 RMS     0.036725449
 Search for a local minimum.
 Step number   1 out of a maximum of  102
 All quantities printed in internal units (Hartrees-Bohrs-Radians)
 Mixed Optimization -- RFO/linear search
 Second derivative matrix not updated -- first step.
 ITU=  0
     Eigenvalues ---    0.00233   0.00243   0.00243   0.00243   0.03836
     Eigenvalues ---    0.03840   0.03844   0.04897   0.04897   0.04898
     Eigenvalues ---    0.05712   0.05722   0.05725   0.05730   0.07651
     Eigenvalues ---    0.07657   0.07669   0.11697   0.11702   0.11711
     Eigenvalues ---    0.16000   0.16000   0.16000   0.16000   0.16000
     Eigenvalues ---    0.16000   0.21945   0.21947   0.21949   0.28491
     Eigenvalues ---    0.28557   0.28560   0.28563   0.39756   0.39764
     Eigenvalues ---    0.39790   0.39804   0.39830   0.39866   0.39898
     Eigenvalues ---    0.39900   0.39951   0.39955   0.39958   0.39990
 RFO step:  Lambda=-2.40966147D-01 EMin= 2.32654356D-03
 Linear search not attempted -- first point.
 Maximum step size (   0.300) exceeded in Quadratic search.
    -- Step size scaled by   0.442
 Iteration  1 RMS(Cart)=  0.21099417 RMS(Int)=  0.01063735
 Iteration  2 RMS(Cart)=  0.03231912 RMS(Int)=  0.00074381
 Iteration  3 RMS(Cart)=  0.00066211 RMS(Int)=  0.00069091
 Iteration  4 RMS(Cart)=  0.00000056 RMS(Int)=  0.00069091
 Variable       Old X    -DE/DX   Delta X   Delta X   Delta X     New X
                                 (Linear)    (Quad)   (Total)
    R1        2.90936   0.02506   0.00000   0.02104   0.02104   2.93040
    R2        1.98392   0.03366   0.00000   0.02326   0.02326   2.00717
    R3        1.98389   0.03329   0.00000   0.02300   0.02300   2.00689
    R4        1.98520   0.00307   0.00000   0.00213   0.00213   1.98733
    R5        2.91077   0.08265   0.00000   0.06949   0.06949   2.98026
    R6        1.98311   0.03234   0.00000   0.02232   0.02232   2.00543
    R7        1.98267   0.03232   0.00000   0.02229   0.02229   2.00497
    R8        2.90924   0.02165   0.00000   0.01817   0.01817   2.92741
    R9        1.98575   0.03156   0.00000   0.02185   0.02185   2.00759
   R10        1.98314   0.03327   0.00000   0.02296   0.02296   2.00610
   R11        2.90930   0.00260   0.00000   0.00218   0.00218   2.91149
   R12        1.98320   0.00731   0.00000   0.00505   0.00505   1.98824
   R13        1.98586   0.03344   0.00000   0.02315   0.02315   2.00902
   R14        1.98485   0.03315   0.00000   0.02293   0.02293   2.00778
   R15        1.98436   0.03343   0.00000   0.02311   0.02311   2.00747
   R16        1.98539   0.03242   0.00000   0.02243   0.02243   2.00782
    A1        1.90992  -0.00475   0.00000  -0.00669  -0.00665   1.90327
    A2        1.90988   0.00417   0.00000   0.00522   0.00503   1.91491
    A3        1.91093   0.03349   0.00000   0.03776   0.03760   1.94853
    A4        1.91129  -0.00516   0.00000  -0.00734  -0.00734   1.90395
    A5        1.91065  -0.01846   0.00000  -0.02160  -0.02154   1.88911
    A6        1.91114  -0.00927   0.00000  -0.00732  -0.00768   1.90346
    A7        1.91085   0.17325   0.00000   0.16989   0.17067   2.08152
    A8        1.91127  -0.06114   0.00000  -0.06055  -0.06082   1.85045
    A9        1.91042  -0.03853   0.00000  -0.03154  -0.03136   1.87906
   A10        1.91005  -0.04108   0.00000  -0.03562  -0.03475   1.87531
   A11        1.91025  -0.05734   0.00000  -0.05465  -0.05549   1.85476
   A12        1.91095   0.02487   0.00000   0.01250   0.00950   1.92045
   A13        1.91015   0.17344   0.00000   0.17005   0.17083   2.08098
   A14        1.91107  -0.05786   0.00000  -0.05539  -0.05614   1.85493
   A15        1.91218  -0.03978   0.00000  -0.03391  -0.03300   1.87917
   A16        1.90964  -0.03884   0.00000  -0.03203  -0.03179   1.87785
   A17        1.90993  -0.06207   0.00000  -0.06154  -0.06194   1.84799
   A18        1.91083   0.02515   0.00000   0.01286   0.00986   1.92070
   A19        1.91150  -0.00326   0.00000  -0.00337  -0.00334   1.90817
   A20        1.91176   0.01658   0.00000   0.02169   0.02166   1.93342
   A21        1.91001   0.00058   0.00000   0.00135   0.00131   1.91131
   A22        1.91223  -0.01354   0.00000  -0.01797  -0.01795   1.89428
   A23        1.90914  -0.00100   0.00000  -0.00309  -0.00311   1.90603
   A24        1.90916   0.00062   0.00000   0.00138   0.00121   1.91036
   A25        1.91119   0.00509   0.00000   0.00570   0.00569   1.91688
   A26        1.91215   0.00423   0.00000   0.00467   0.00466   1.91681
   A27        1.91036   0.00072   0.00000   0.00070   0.00069   1.91106
   A28        1.90920  -0.00407   0.00000  -0.00430  -0.00432   1.90488
   A29        1.90968  -0.00296   0.00000  -0.00328  -0.00328   1.90640
   A30        1.91121  -0.00302   0.00000  -0.00350  -0.00350   1.90771
    D1        2.40397   0.00883   0.00000   0.01399   0.01317   2.41714
    D2        0.30976  -0.00960   0.00000  -0.00944  -0.00850   0.30127
    D3       -1.78528   0.02104   0.00000   0.03172   0.03156  -1.75373
    D4       -1.78492   0.00217   0.00000   0.00411   0.00320  -1.78171
    D5        2.40406  -0.01627   0.00000  -0.01932  -0.01846   2.38560
    D6        0.30901   0.01437   0.00000   0.02184   0.02159   0.33061
    D7        0.30982   0.01386   0.00000   0.02144   0.02075   0.33057
    D8       -1.78439  -0.00457   0.00000  -0.00198  -0.00092  -1.78531
    D9        2.40375   0.02606   0.00000   0.03917   0.03913   2.44289
   D10        0.00022   0.01987   0.00000   0.03053   0.02926   0.02948
   D11       -2.09293  -0.00332   0.00000  -0.00043  -0.00022  -2.09316
   D12        2.09440   0.02592   0.00000   0.03875   0.03800   2.13240
   D13        2.09518   0.02588   0.00000   0.03855   0.03768   2.13285
   D14        0.00202   0.00269   0.00000   0.00759   0.00820   0.01022
   D15       -2.09383   0.03193   0.00000   0.04677   0.04642  -2.04741
   D16       -2.09381  -0.00384   0.00000  -0.00133  -0.00119  -2.09500
   D17        2.09622  -0.02703   0.00000  -0.03229  -0.03067   2.06555
   D18        0.00037   0.00221   0.00000   0.00689   0.00756   0.00793
   D19        2.51363   0.00785   0.00000   0.01362   0.01278   2.52641
   D20        0.41605   0.01625   0.00000   0.02438   0.02360   0.43965
   D21       -1.67684   0.00500   0.00000   0.00860   0.00774  -1.66910
   D22       -1.67553   0.01921   0.00000   0.03009   0.02990  -1.64562
   D23        2.51008   0.02762   0.00000   0.04085   0.04072   2.55080
   D24        0.41719   0.01636   0.00000   0.02507   0.02486   0.44205
   D25        0.41808  -0.01159   0.00000  -0.01126  -0.01027   0.40781
   D26       -1.67951  -0.00319   0.00000  -0.00050   0.00055  -1.67896
   D27        2.51079  -0.01444   0.00000  -0.01628  -0.01531   2.49548
   D28       -3.14061  -0.00380   0.00000  -0.00506  -0.00505   3.13752
   D29        1.04866  -0.00454   0.00000  -0.00615  -0.00616   1.04250
   D30       -1.04721  -0.00387   0.00000  -0.00516  -0.00516  -1.05237
   D31       -1.04332   0.00619   0.00000   0.00840   0.00839  -1.03493
   D32       -3.13723   0.00545   0.00000   0.00731   0.00729  -3.12995
   D33        1.05008   0.00612   0.00000   0.00830   0.00828   1.05837
   D34        1.04933  -0.00192   0.00000  -0.00276  -0.00274   1.04659
   D35       -1.04458  -0.00266   0.00000  -0.00386  -0.00384  -1.04843
   D36       -3.14046  -0.00199   0.00000  -0.00286  -0.00284   3.13989
         Item               Value     Threshold  Converged?
 Maximum Force            0.173439     0.000450     NO 
 RMS     Force            0.036725     0.000300     NO 
 Maximum Displacement     0.799995     0.001800     NO 
 RMS     Displacement     0.237964     0.001200     NO 
 Predicted change in Energy=-9.561705D-02
 GradGradGradGradGradGradGradGradGradGradGradGradGradGradGradGradGradGrad

                          Input orientation:                          
 ---------------------------------------------------------------------
 Center     Atomic      Atomic             Coordinates (Angstroms)
 Number     Number       Type             X           Y           Z
 ---------------------------------------------------------------------
      1          6           0       -0.113475   -0.011503   -0.320276
      2          6           0        1.116235    0.926644   -0.209079
      3          6           0        1.672311    1.302848    1.217963
      4          6           0        1.001940    0.695230    2.475409
      5          6           0        2.075915    0.428707    3.547451
      6          1           0       -0.762661    0.356041   -1.076339
      7          1           0        0.205077   -0.990288   -0.581710
      8          1           0       -0.651053   -0.054979    0.582547
      9          1           0        1.623831    0.015307    4.415534
     10          1           0        0.839567    1.830632   -0.691220
     11          1           0        1.919065    0.468085   -0.729530
     12          1           0        1.602046    2.360036    1.295763
     13          1           0        2.689593    1.001889    1.256978
     14          1           0        0.528381   -0.215070    2.242863
     15          1           0        0.284978    1.378987    2.860999
     16          1           0        2.560042    1.338156    3.806337
     17          1           0        2.794207   -0.255723    3.167310
 ---------------------------------------------------------------------
                    Distance matrix (angstroms):
                    1          2          3          4          5
     1  C    0.000000
     2  C    1.550700   0.000000
     3  C    2.698653   1.577086   0.000000
     4  C    3.091840   2.696867   1.549118   0.000000
     5  C    4.466154   3.909021   2.520622   1.540692   0.000000
     6  H    1.062150   2.146620   3.476975   3.980425   5.426070
     7  H    1.062000   2.154923   3.263445   3.580773   4.750111
     8  H    1.051651   2.171074   2.765044   2.622618   4.057212
     9  H    5.044486   4.740805   3.447400   2.147819   1.062472
    10  H    2.106976   1.061225   2.148720   3.367943   4.632525
    11  H    2.128078   1.060982   2.133178   3.341309   4.280038
    12  H    3.343469   2.134285   1.062372   2.126798   3.004111
    13  H    3.372223   2.151847   1.061585   2.103993   2.439550
    14  H    2.650113   2.767870   2.159415   1.052132   2.123973
    15  H    3.494672   3.212628   2.151757   1.063127   2.140492
    16  H    5.098844   4.286897   2.736603   2.147651   1.062308
    17  H    4.547253   3.951403   2.736375   2.143655   1.062495
                    6          7          8          9         10
     6  H    0.000000
     7  H    1.730253   0.000000
     8  H    1.712687   1.721411   0.000000
     9  H    5.997675   5.291175   4.457783   0.000000
    10  H    2.211305   2.893469   2.720286   5.476258   0.000000
    11  H    2.706379   2.255318   2.932686   5.173379   1.738770
    12  H    3.903166   4.086697   3.378969   3.902717   2.193112
    13  H    4.216580   3.677277   3.568157   3.476444   2.811564
    14  H    3.606946   2.946812   2.042876   2.444091   3.590345
    15  H    4.200785   4.179963   2.850220   2.463479   3.623508
    16  H    5.987105   5.497497   4.758653   1.731341   4.840515
    17  H    5.570827   4.615011   4.311741   1.732426   4.802265
                   11         12         13         14         15
    11  H    0.000000
    12  H    2.789586   0.000000
    13  H    2.196560   1.740352   0.000000
    14  H    3.351989   2.946341   2.669045   0.000000
    15  H    4.048689   2.268720   2.915006   1.726949   0.000000
    16  H    4.662828   2.874888   2.574702   2.997434   2.463990
    17  H    4.058957   3.430179   2.289519   2.447493   3.010371
                   16         17
    16  H    0.000000
    17  H    1.733101   0.000000
 Stoichiometry    C5H12
 Framework group  C1[X(C5H12)]
 Deg. of freedom    45
 Full point group                 C1      NOp   1
 Largest Abelian subgroup         C1      NOp   1
 Largest concise Abelian subgroup C1      NOp   1
                         Standard orientation:                         
 ---------------------------------------------------------------------
 Center     Atomic      Atomic             Coordinates (Angstroms)
 Number     Number       Type             X           Y           Z
 ---------------------------------------------------------------------
      1          6           0        2.054556   -0.771697    0.083801
      2          6           0        1.441968    0.652647    0.109309
      3          6           0       -0.104979    0.831084   -0.140318
      4          6           0       -0.984521   -0.423954   -0.366271
      5          6           0       -2.370564   -0.196040    0.266714
      6          1           0        2.982744   -0.740685   -0.431627
      7          1           0        2.220092   -1.108361    1.077330
      8          1           0        1.426404   -1.455279   -0.410273
      9          1           0       -2.982103   -1.051119    0.112745
     10          1           0        1.951033    1.203938   -0.641111
     11          1           0        1.639139    1.070809    1.064269
     12          1           0       -0.198684    1.447912   -1.000190
     13          1           0       -0.513396    1.323348    0.706932
     14          1           0       -0.548125   -1.270836    0.080195
     15          1           0       -1.100005   -0.593470   -1.409422
     16          1           0       -2.835271    0.649260   -0.178276
     17          1           0       -2.260588   -0.027764    1.310018
 ---------------------------------------------------------------------
 Rotational constants (GHZ):          10.4418562           2.3762090           2.1191998
 Standard basis: 6-31G(d) (6D, 7F)
 There are    99 symmetry adapted cartesian basis functions of A   symmetry.
 There are    99 symmetry adapted basis functions of A   symmetry.
    99 basis functions,   188 primitive gaussians,    99 cartesian basis functions
    21 alpha electrons       21 beta electrons
       nuclear repulsion energy       187.7836341022 Hartrees.
 NAtoms=   17 NActive=   17 NUniq=   17 SFac= 1.00D+00 NAtFMM=   60 NAOKFM=F Big=F
 Integral buffers will be    131072 words long.
 Raffenetti 2 integral format.
 Two-electron integral symmetry is turned on.
 Nuclear repulsion after empirical dispersion term =      187.7833218444 Hartrees.
 One-electron integrals computed using PRISM.
 NBasis=    99 RedAO= T EigKep=  3.84D-03  NBF=    99
 NBsUse=    99 1.00D-06 EigRej= -1.00D+00 NBFU=    99
 Initial guess from the checkpoint file:  "pentane_10.chk"
 B after Tr=     0.000000    0.000000    0.000000
         Rot=    0.999450    0.019077   -0.004729   -0.026708 Ang=   3.80 deg.
 ExpMin= 1.61D-01 ExpMax= 3.05D+03 ExpMxC= 4.57D+02 IAcc=2 IRadAn=         4 AccDes= 0.00D+00
 Harris functional with IExCor= 1009 and IRadAn=       4 diagonalized for initial guess.
 HarFok:  IExCor= 1009 AccDes= 0.00D+00 IRadAn=         4 IDoV= 1 UseB2=F ITyADJ=14
 ICtDFT=  3500011 ScaDFX=  1.000000  1.000000  1.000000  1.000000
 FoFCou: FMM=F IPFlag=           0 FMFlag=      100000 FMFlg1=           0
         NFxFlg=           0 DoJE=T BraDBF=F KetDBF=T FulRan=T
         wScrn=  0.000000 ICntrl=       500 IOpCl=  0 I1Cent=   200000004 NGrid=           0
         NMat0=    1 NMatS0=      1 NMatT0=    0 NMatD0=    1 NMtDS0=    0 NMtDT0=    0
 Petite list used in FoFCou.
 Keep R1 ints in memory in canonical form, NReq=15944043.
 Requested convergence on RMS density matrix=1.00D-08 within 128 cycles.
 Requested convergence on MAX density matrix=1.00D-06.
 Requested convergence on             energy=1.00D-06.
 No special actions if energy rises.
 Integral accuracy reduced to 1.0D-05 until final iterations.
 Initial convergence to 1.0D-05 achieved.  Increase integral accuracy.
 SCF Done:  E(RM062X) =  -197.620738873     A.U. after   12 cycles
            NFock= 12  Conv=0.43D-08     -V/T= 2.0066
 Calling FoFJK, ICntrl=      2127 FMM=F ISym2X=0 I1Cent= 0 IOpClX= 0 NMat=1 NMatS=1 NMatT=0.
 ***** Axes restored to original set *****
 -------------------------------------------------------------------
 Center     Atomic                   Forces (Hartrees/Bohr)
 Number     Number              X              Y              Z
 -------------------------------------------------------------------
      1        6           0.029573986    0.017881947   -0.000271648
      2        6          -0.015309192   -0.010351199    0.031509211
      3        6          -0.032158571   -0.022569608   -0.007388574
      4        6           0.038390264    0.012517103   -0.005386564
      5        6          -0.026158803    0.005622624   -0.018153148
      6        1          -0.014319836    0.004293101   -0.016589318
      7        1           0.002749721   -0.022318841   -0.004059640
      8        1          -0.017752002   -0.001864791    0.024947289
      9        1          -0.006837633   -0.008808614    0.020369196
     10        1           0.000769763    0.019789048   -0.013070620
     11        1           0.016327493   -0.004768857   -0.016850653
     12        1           0.006185514    0.022593795    0.003984729
     13        1           0.024161889   -0.000912945   -0.001477922
     14        1          -0.015606206   -0.026137094   -0.005684862
     15        1          -0.018920932    0.010917172    0.007678513
     16        1           0.012402867    0.018647952    0.006785896
     17        1           0.016501677   -0.014530795   -0.006341885
 -------------------------------------------------------------------
 Cartesian Forces:  Max     0.038390264 RMS     0.016678739

 GradGradGradGradGradGradGradGradGradGradGradGradGradGradGradGradGradGrad
 Berny optimization.
 Using GEDIIS/GDIIS optimizer.
 FormGI is forming the generalized inverse of G from B-inverse, IUseBI=4.
 Internal  Forces:  Max     0.030895319 RMS     0.009668738
 Search for a local minimum.
 Step number   2 out of a maximum of  102
 All quantities printed in internal units (Hartrees-Bohrs-Radians)
 Mixed Optimization -- RFO/linear search
 Update second derivatives using D2CorX and points    1    2
 DE= -3.85D-02 DEPred=-9.56D-02 R= 4.03D-01
 Trust test= 4.03D-01 RLast= 3.25D-01 DXMaxT set to 3.00D-01
 ITU=  0  0
 Use linear search instead of GDIIS.
     Eigenvalues ---    0.00235   0.00243   0.00243   0.00249   0.02986
     Eigenvalues ---    0.02992   0.03858   0.04709   0.04872   0.04918
     Eigenvalues ---    0.05498   0.05663   0.05694   0.05731   0.07689
     Eigenvalues ---    0.09214   0.09219   0.11707   0.12828   0.12911
     Eigenvalues ---    0.15980   0.16000   0.16000   0.16000   0.16000
     Eigenvalues ---    0.16077   0.21933   0.22197   0.27906   0.28548
     Eigenvalues ---    0.28560   0.28561   0.36595   0.39455   0.39760
     Eigenvalues ---    0.39776   0.39807   0.39845   0.39878   0.39894
     Eigenvalues ---    0.39899   0.39935   0.39957   0.39983   1.08887
 RFO step:  Lambda=-2.28691380D-02 EMin= 2.34936604D-03
 Quartic linear search produced a step of  0.04122.
 Iteration  1 RMS(Cart)=  0.05336373 RMS(Int)=  0.00138970
 Iteration  2 RMS(Cart)=  0.00172867 RMS(Int)=  0.00009414
 Iteration  3 RMS(Cart)=  0.00000217 RMS(Int)=  0.00009412
 Iteration  4 RMS(Cart)=  0.00000000 RMS(Int)=  0.00009412
 Variable       Old X    -DE/DX   Delta X   Delta X   Delta X     New X
                                 (Linear)    (Quad)   (Total)
    R1        2.93040   0.00072   0.00087   0.00439   0.00526   2.93565
    R2        2.00717   0.02205   0.00096   0.05606   0.05702   2.06419
    R3        2.00689   0.02239   0.00095   0.05689   0.05783   2.06472
    R4        1.98733   0.03057   0.00009   0.07536   0.07545   2.06278
    R5        2.98026  -0.00643   0.00286  -0.01517  -0.01231   2.96795
    R6        2.00543   0.02260   0.00092   0.05725   0.05817   2.06359
    R7        2.00497   0.02268   0.00092   0.05741   0.05833   2.06330
    R8        2.92741   0.00020   0.00075   0.00237   0.00312   2.93052
    R9        2.00759   0.02237   0.00090   0.05690   0.05780   2.06539
   R10        2.00610   0.02336   0.00095   0.05917   0.06012   2.06622
   R11        2.91149  -0.00116   0.00009  -0.00370  -0.00361   2.90788
   R12        1.98824   0.03090   0.00021   0.07615   0.07635   2.06460
   R13        2.00902   0.02257   0.00095   0.05751   0.05847   2.06749
   R14        2.00778   0.02298   0.00095   0.05841   0.05936   2.06714
   R15        2.00747   0.02327   0.00095   0.05909   0.06004   2.06752
   R16        2.00782   0.02279   0.00092   0.05795   0.05887   2.06670
    A1        1.90327   0.00277  -0.00027   0.01454   0.01411   1.91738
    A2        1.91491   0.00494   0.00021   0.02892   0.02887   1.94378
    A3        1.94853   0.00159   0.00155   0.01336   0.01473   1.96326
    A4        1.90395  -0.00372  -0.00030  -0.02189  -0.02240   1.88155
    A5        1.88911  -0.00233  -0.00089  -0.01645  -0.01741   1.87170
    A6        1.90346  -0.00350  -0.00032  -0.01997  -0.02056   1.88290
    A7        2.08152  -0.01049   0.00704  -0.01896  -0.01188   2.06964
    A8        1.85045   0.00553  -0.00251   0.02751   0.02501   1.87546
    A9        1.87906   0.00320  -0.00129   0.01422   0.01296   1.89202
   A10        1.87531   0.00220  -0.00143   0.00631   0.00492   1.88023
   A11        1.85476   0.00429  -0.00229   0.01553   0.01323   1.86799
   A12        1.92045  -0.00507   0.00039  -0.05088  -0.05058   1.86987
   A13        2.08098  -0.00890   0.00704  -0.01224  -0.00522   2.07577
   A14        1.85493   0.00411  -0.00231   0.01672   0.01434   1.86927
   A15        1.87917   0.00189  -0.00136   0.00552   0.00415   1.88332
   A16        1.87785   0.00249  -0.00131   0.01073   0.00940   1.88726
   A17        1.84799   0.00477  -0.00255   0.02220   0.01962   1.86761
   A18        1.92070  -0.00470   0.00041  -0.04917  -0.04882   1.87188
   A19        1.90817   0.00565  -0.00014   0.03119   0.03083   1.93900
   A20        1.93342  -0.00128   0.00089   0.00331   0.00398   1.93740
   A21        1.91131  -0.00054   0.00005   0.00252   0.00262   1.91393
   A22        1.89428  -0.00072  -0.00074   0.00143   0.00035   1.89464
   A23        1.90603  -0.00209  -0.00013  -0.01056  -0.01086   1.89517
   A24        1.91036  -0.00104   0.00005  -0.02806  -0.02807   1.88229
   A25        1.91688   0.00395   0.00023   0.02444   0.02449   1.94136
   A26        1.91681   0.00216   0.00019   0.01217   0.01225   1.92906
   A27        1.91106   0.00170   0.00003   0.00885   0.00880   1.91986
   A28        1.90488  -0.00281  -0.00018  -0.01472  -0.01511   1.88978
   A29        1.90640  -0.00264  -0.00014  -0.01415  -0.01444   1.89196
   A30        1.90771  -0.00243  -0.00014  -0.01700  -0.01716   1.89055
    D1        2.41714   0.00069   0.00054   0.04358   0.04405   2.46119
    D2        0.30127   0.00026  -0.00035   0.02517   0.02482   0.32608
    D3       -1.75373   0.00174   0.00130   0.06310   0.06436  -1.68937
    D4       -1.78171   0.00080   0.00013   0.04301   0.04310  -1.73861
    D5        2.38560   0.00037  -0.00076   0.02461   0.02387   2.40947
    D6        0.33061   0.00184   0.00089   0.06253   0.06341   0.39401
    D7        0.33057   0.00078   0.00086   0.04623   0.04710   0.37767
    D8       -1.78531   0.00035  -0.00004   0.02783   0.02787  -1.75743
    D9        2.44289   0.00183   0.00161   0.06575   0.06741   2.51030
   D10        0.02948  -0.00034   0.00121   0.02094   0.02210   0.05158
   D11       -2.09316  -0.00099  -0.00001   0.00102   0.00100  -2.09215
   D12        2.13240   0.00142   0.00157   0.04680   0.04834   2.18075
   D13        2.13285   0.00162   0.00155   0.04991   0.05144   2.18430
   D14        0.01022   0.00097   0.00034   0.02999   0.03034   0.04056
   D15       -2.04741   0.00338   0.00191   0.07577   0.07768  -1.96973
   D16       -2.09500  -0.00098  -0.00005   0.00195   0.00192  -2.09308
   D17        2.06555  -0.00163  -0.00126  -0.01797  -0.01918   2.04637
   D18        0.00793   0.00078   0.00031   0.02781   0.02816   0.03609
   D19        2.52641   0.00140   0.00053   0.06044   0.06095   2.58737
   D20        0.43965  -0.00051   0.00097   0.03681   0.03769   0.47734
   D21       -1.66910   0.00196   0.00032   0.06800   0.06836  -1.60074
   D22       -1.64562   0.00275   0.00123   0.08335   0.08460  -1.56102
   D23        2.55080   0.00084   0.00168   0.05972   0.06134   2.61213
   D24        0.44205   0.00331   0.00102   0.09091   0.09200   0.53405
   D25        0.40781   0.00094  -0.00042   0.04296   0.04256   0.45036
   D26       -1.67896  -0.00097   0.00002   0.01933   0.01929  -1.65967
   D27        2.49548   0.00150  -0.00063   0.05052   0.04996   2.54544
   D28        3.13752  -0.00012  -0.00021  -0.00958  -0.00984   3.12768
   D29        1.04250  -0.00046  -0.00025  -0.01430  -0.01467   1.02783
   D30       -1.05237   0.00013  -0.00021  -0.00642  -0.00666  -1.05903
   D31       -1.03493   0.00129   0.00035   0.01408   0.01445  -1.02048
   D32       -3.12995   0.00094   0.00030   0.00936   0.00961  -3.12033
   D33        1.05837   0.00153   0.00034   0.01724   0.01762   1.07599
   D34        1.04659  -0.00160  -0.00011  -0.02506  -0.02510   1.02149
   D35       -1.04843  -0.00195  -0.00016  -0.02978  -0.02993  -1.07836
   D36        3.13989  -0.00136  -0.00012  -0.02190  -0.02192   3.11796
         Item               Value     Threshold  Converged?
 Maximum Force            0.030895     0.000450     NO 
 RMS     Force            0.009669     0.000300     NO 
 Maximum Displacement     0.171700     0.001800     NO 
 RMS     Displacement     0.053606     0.001200     NO 
 Predicted change in Energy=-1.203151D-02
 GradGradGradGradGradGradGradGradGradGradGradGradGradGradGradGradGradGrad

                          Input orientation:                          
 ---------------------------------------------------------------------
 Center     Atomic      Atomic             Coordinates (Angstroms)
 Number     Number       Type             X           Y           Z
 ---------------------------------------------------------------------
      1          6           0       -0.129817    0.010365   -0.309501
      2          6           0        1.116282    0.933669   -0.219780
      3          6           0        1.685890    1.291218    1.199516
      4          6           0        1.029445    0.656648    2.453023
      5          6           0        2.064604    0.440344    3.570838
      6          1           0       -0.793919    0.359488   -1.103382
      7          1           0        0.153463   -1.019468   -0.539678
      8          1           0       -0.709110   -0.000145    0.615619
      9          1           0        1.601127    0.005731    4.461275
     10          1           0        0.867224    1.869912   -0.723661
     11          1           0        1.929167    0.471368   -0.783367
     12          1           0        1.634422    2.378144    1.302009
     13          1           0        2.743304    1.013579    1.217097
     14          1           0        0.572783   -0.305930    2.211072
     15          1           0        0.241980    1.316099    2.829858
     16          1           0        2.527610    1.390320    3.854014
     17          1           0        2.851546   -0.236346    3.226049
 ---------------------------------------------------------------------
                    Distance matrix (angstroms):
                    1          2          3          4          5
     1  C    0.000000
     2  C    1.553481   0.000000
     3  C    2.685984   1.570572   0.000000
     4  C    3.064818   2.688523   1.550767   0.000000
     5  C    4.478549   3.938460   2.547661   1.538783   0.000000
     6  H    1.092321   2.181583   3.510116   4.007614   5.479601
     7  H    1.092605   2.200932   3.272980   3.540193   4.762337
     8  H    1.091575   2.214036   2.782908   2.613427   4.076867
     9  H    5.075086   4.796709   3.506955   2.187142   1.093882
    10  H    2.150240   1.092006   2.168805   3.404357   4.681892
    11  H    2.162520   1.091849   2.159437   3.364231   4.356422
    12  H    3.363909   2.161208   1.092960   2.157401   3.014583
    13  H    3.404668   2.172142   1.093398   2.142948   2.515816
    14  H    2.635712   2.782273   2.193886   1.092537   2.152073
    15  H    3.420343   3.195457   2.177960   1.094066   2.153592
    16  H    5.128455   4.335455   2.786516   2.178428   1.094082
    17  H    4.631361   4.031602   2.792676   2.171419   1.093648
                    6          7          8          9         10
     6  H    0.000000
     7  H    1.765451   0.000000
     8  H    1.758263   1.765718   0.000000
     9  H    6.068509   5.306251   4.486235   0.000000
    10  H    2.277051   2.981915   2.788478   5.558538   0.000000
    11  H    2.744108   2.331331   3.023242   5.275481   1.757047
    12  H    3.969599   4.138697   3.408743   3.951002   2.224912
    13  H    4.280702   3.731864   3.648092   3.583995   2.831877
    14  H    3.646404   2.872558   2.069354   2.493599   3.665194
    15  H    4.178345   4.100790   2.745892   2.495169   3.650361
    16  H    6.055654   5.545104   4.785076   1.773195   4.893056
    17  H    5.691081   4.698258   4.421358   1.774241   4.896332
                   11         12         13         14         15
    11  H    0.000000
    12  H    2.841032   0.000000
    13  H    2.226807   1.760360   0.000000
    14  H    3.377964   3.026174   2.727683   0.000000
    15  H    4.076220   2.324039   2.991512   1.767287   0.000000
    16  H    4.765282   2.878595   2.672413   3.065594   2.505695
    17  H    4.174573   3.466825   2.368526   2.495553   3.062171
                   16         17
    16  H    0.000000
    17  H    1.773504   0.000000
 Stoichiometry    C5H12
 Framework group  C1[X(C5H12)]
 Deg. of freedom    45
 Full point group                 C1      NOp   1
 Largest Abelian subgroup         C1      NOp   1
 Largest concise Abelian subgroup C1      NOp   1
                         Standard orientation:                         
 ---------------------------------------------------------------------
 Center     Atomic      Atomic             Coordinates (Angstroms)
 Number     Number       Type             X           Y           Z
 ---------------------------------------------------------------------
      1          6           0        2.045431   -0.779288    0.074065
      2          6           0        1.451830    0.656005    0.103685
      3          6           0       -0.090329    0.836339   -0.132792
      4          6           0       -0.973531   -0.424887   -0.317567
      5          6           0       -2.391789   -0.193358    0.232699
      6          1           0        3.017934   -0.768427   -0.423212
      7          1           0        2.190796   -1.170930    1.083655
      8          1           0        1.411675   -1.482029   -0.470034
      9          1           0       -3.020892   -1.076913    0.090798
     10          1           0        1.975299    1.242682   -0.654119
     11          1           0        1.681271    1.104013    1.072592
     12          1           0       -0.208222    1.466772   -1.017787
     13          1           0       -0.498168    1.390661    0.716862
     14          1           0       -0.538261   -1.286243    0.194529
     15          1           0       -1.047876   -0.669575   -1.381325
     16          1           0       -2.867064    0.651337   -0.274865
     17          1           0       -2.346172    0.029787    1.302368
 ---------------------------------------------------------------------
 Rotational constants (GHZ):          10.3099838           2.3625788           2.0934428
 Standard basis: 6-31G(d) (6D, 7F)
 There are    99 symmetry adapted cartesian basis functions of A   symmetry.
 There are    99 symmetry adapted basis functions of A   symmetry.
    99 basis functions,   188 primitive gaussians,    99 cartesian basis functions
    21 alpha electrons       21 beta electrons
       nuclear repulsion energy       185.9390740046 Hartrees.
 NAtoms=   17 NActive=   17 NUniq=   17 SFac= 1.00D+00 NAtFMM=   60 NAOKFM=F Big=F
 Integral buffers will be    131072 words long.
 Raffenetti 2 integral format.
 Two-electron integral symmetry is turned on.
 Nuclear repulsion after empirical dispersion term =      185.9387568184 Hartrees.
 One-electron integrals computed using PRISM.
 NBasis=    99 RedAO= T EigKep=  4.04D-03  NBF=    99
 NBsUse=    99 1.00D-06 EigRej= -1.00D+00 NBFU=    99
 Initial guess from the checkpoint file:  "pentane_10.chk"
 B after Tr=    -0.000000   -0.000000   -0.000000
         Rot=    0.999986    0.004827    0.001753    0.001578 Ang=   0.62 deg.
 ExpMin= 1.61D-01 ExpMax= 3.05D+03 ExpMxC= 4.57D+02 IAcc=2 IRadAn=         4 AccDes= 0.00D+00
 Harris functional with IExCor= 1009 and IRadAn=       4 diagonalized for initial guess.
 HarFok:  IExCor= 1009 AccDes= 0.00D+00 IRadAn=         4 IDoV= 1 UseB2=F ITyADJ=14
 ICtDFT=  3500011 ScaDFX=  1.000000  1.000000  1.000000  1.000000
 FoFCou: FMM=F IPFlag=           0 FMFlag=      100000 FMFlg1=           0
         NFxFlg=           0 DoJE=T BraDBF=F KetDBF=T FulRan=T
         wScrn=  0.000000 ICntrl=       500 IOpCl=  0 I1Cent=   200000004 NGrid=           0
         NMat0=    1 NMatS0=      1 NMatT0=    0 NMatD0=    1 NMtDS0=    0 NMtDT0=    0
 Petite list used in FoFCou.
 Keep R1 ints in memory in canonical form, NReq=15944043.
 Requested convergence on RMS density matrix=1.00D-08 within 128 cycles.
 Requested convergence on MAX density matrix=1.00D-06.
 Requested convergence on             energy=1.00D-06.
 No special actions if energy rises.
 Integral accuracy reduced to 1.0D-05 until final iterations.
 Initial convergence to 1.0D-05 achieved.  Increase integral accuracy.
 SCF Done:  E(RM062X) =  -197.632921270     A.U. after   11 cycles
            NFock= 11  Conv=0.45D-08     -V/T= 2.0096
 Calling FoFJK, ICntrl=      2127 FMM=F ISym2X=0 I1Cent= 0 IOpClX= 0 NMat=1 NMatS=1 NMatT=0.
 ***** Axes restored to original set *****
 -------------------------------------------------------------------
 Center     Atomic                   Forces (Hartrees/Bohr)
 Number     Number              X              Y              Z
 -------------------------------------------------------------------
      1        6           0.006754337    0.005181000    0.001571070
      2        6          -0.005255955   -0.002829617    0.008322225
      3        6          -0.008038961   -0.006487020   -0.001399111
      4        6           0.008915026    0.002300288   -0.001746125
      5        6          -0.005834519    0.001936207   -0.004298878
      6        1          -0.000109762   -0.001662118   -0.001222878
      7        1          -0.000728655   -0.000972880    0.001694292
      8        1          -0.001179762    0.001051955   -0.000075023
      9        1           0.000542699    0.000252830    0.000292540
     10        1           0.001988686    0.000699165   -0.001416700
     11        1          -0.000724608    0.001196200   -0.003754470
     12        1           0.003736386    0.000857805    0.002624736
     13        1           0.001878348    0.001696734   -0.000608143
     14        1          -0.000500859   -0.000947022   -0.000160438
     15        1          -0.003669310   -0.002023035   -0.001200019
     16        1           0.001174091   -0.000084464    0.000523565
     17        1           0.001052819   -0.000166027    0.000853357
 -------------------------------------------------------------------
 Cartesian Forces:  Max     0.008915026 RMS     0.003189141

 GradGradGradGradGradGradGradGradGradGradGradGradGradGradGradGradGradGrad
 Berny optimization.
 Using GEDIIS/GDIIS optimizer.
 FormGI is forming the generalized inverse of G from B-inverse, IUseBI=4.
 Internal  Forces:  Max     0.006054711 RMS     0.001891871
 Search for a local minimum.
 Step number   3 out of a maximum of  102
 All quantities printed in internal units (Hartrees-Bohrs-Radians)
 Mixed Optimization -- RFO/linear search
 Update second derivatives using D2CorX and points    1    2    3
 DE= -1.22D-02 DEPred=-1.20D-02 R= 1.01D+00
 TightC=F SS=  1.41D+00  RLast= 3.60D-01 DXNew= 5.0454D-01 1.0813D+00
 Trust test= 1.01D+00 RLast= 3.60D-01 DXMaxT set to 5.05D-01
 ITU=  1  0  0
 Use linear search instead of GDIIS.
     Eigenvalues ---    0.00232   0.00239   0.00243   0.00243   0.02922
     Eigenvalues ---    0.02948   0.03627   0.04634   0.04652   0.04835
     Eigenvalues ---    0.05287   0.05457   0.05533   0.05577   0.08026
     Eigenvalues ---    0.09233   0.09284   0.11973   0.12846   0.12954
     Eigenvalues ---    0.15721   0.16000   0.16000   0.16000   0.16020
     Eigenvalues ---    0.16064   0.21950   0.22072   0.27459   0.28250
     Eigenvalues ---    0.28561   0.28572   0.38622   0.39741   0.39761
     Eigenvalues ---    0.39793   0.39833   0.39877   0.39891   0.39898
     Eigenvalues ---    0.39901   0.39954   0.39983   0.40801   1.09727
 RFO step:  Lambda=-6.53469419D-03 EMin= 2.32243456D-03
 Quartic linear search produced a step of  0.16570.
 Iteration  1 RMS(Cart)=  0.15632370 RMS(Int)=  0.01110882
 Iteration  2 RMS(Cart)=  0.01529359 RMS(Int)=  0.00011722
 Iteration  3 RMS(Cart)=  0.00011583 RMS(Int)=  0.00009279
 Iteration  4 RMS(Cart)=  0.00000001 RMS(Int)=  0.00009279
 Variable       Old X    -DE/DX   Delta X   Delta X   Delta X     New X
                                 (Linear)    (Quad)   (Total)
    R1        2.93565  -0.00605   0.00087  -0.02527  -0.02440   2.91125
    R2        2.06419   0.00042   0.00945  -0.00625   0.00320   2.06739
    R3        2.06472   0.00037   0.00958  -0.00641   0.00317   2.06790
    R4        2.06278   0.00055   0.01250  -0.00419   0.00831   2.07109
    R5        2.96795  -0.00550  -0.00204  -0.02807  -0.03011   2.93784
    R6        2.06359   0.00080   0.00964  -0.00521   0.00443   2.06802
    R7        2.06330   0.00089   0.00967  -0.00497   0.00470   2.06799
    R8        2.93052  -0.00586   0.00052  -0.02405  -0.02353   2.90699
    R9        2.06539   0.00092   0.00958  -0.00477   0.00481   2.07020
   R10        2.06622   0.00138   0.00996  -0.00391   0.00605   2.07228
   R11        2.90788  -0.00425  -0.00060  -0.01565  -0.01624   2.89164
   R12        2.06460   0.00108   0.01265  -0.00328   0.00937   2.07396
   R13        2.06749   0.00101   0.00969  -0.00477   0.00492   2.07240
   R14        2.06714  -0.00009   0.00984  -0.00773   0.00210   2.06924
   R15        2.06752   0.00056   0.00995  -0.00608   0.00386   2.07138
   R16        2.06670   0.00059   0.00976  -0.00581   0.00394   2.07064
    A1        1.91738   0.00135   0.00234   0.00817   0.01045   1.92783
    A2        1.94378   0.00115   0.00478   0.00564   0.01035   1.95414
    A3        1.96326  -0.00038   0.00244  -0.00661  -0.00418   1.95908
    A4        1.88155  -0.00106  -0.00371  -0.00397  -0.00779   1.87375
    A5        1.87170  -0.00053  -0.00288  -0.00157  -0.00445   1.86725
    A6        1.88290  -0.00066  -0.00341  -0.00203  -0.00546   1.87744
    A7        2.06964  -0.00577  -0.00197  -0.03843  -0.04012   2.02952
    A8        1.87546   0.00196   0.00414   0.01453   0.01888   1.89434
    A9        1.89202   0.00134   0.00215   0.01039   0.01280   1.90482
   A10        1.88023   0.00213   0.00082   0.01834   0.01929   1.89952
   A11        1.86799   0.00272   0.00219   0.02459   0.02688   1.89487
   A12        1.86987  -0.00227  -0.00838  -0.03087  -0.03940   1.83048
   A13        2.07577  -0.00590  -0.00086  -0.03927  -0.03986   2.03591
   A14        1.86927   0.00293   0.00238   0.02692   0.02938   1.89865
   A15        1.88332   0.00225   0.00069   0.01933   0.02011   1.90344
   A16        1.88726   0.00128   0.00156   0.01013   0.01198   1.89924
   A17        1.86761   0.00189   0.00325   0.01369   0.01714   1.88475
   A18        1.87188  -0.00238  -0.00809  -0.03265  -0.04090   1.83098
   A19        1.93900   0.00027   0.00511   0.00428   0.00928   1.94828
   A20        1.93740  -0.00043   0.00066  -0.00369  -0.00315   1.93425
   A21        1.91393   0.00028   0.00043   0.00382   0.00419   1.91813
   A22        1.89464   0.00072   0.00006   0.00882   0.00882   1.90345
   A23        1.89517   0.00022  -0.00180   0.00540   0.00352   1.89869
   A24        1.88229  -0.00109  -0.00465  -0.01911  -0.02376   1.85853
   A25        1.94136   0.00042   0.00406   0.00107   0.00507   1.94643
   A26        1.92906   0.00107   0.00203   0.00532   0.00731   1.93637
   A27        1.91986   0.00139   0.00146   0.00826   0.00967   1.92952
   A28        1.88978  -0.00079  -0.00250  -0.00363  -0.00619   1.88359
   A29        1.89196  -0.00085  -0.00239  -0.00344  -0.00589   1.88608
   A30        1.89055  -0.00135  -0.00284  -0.00818  -0.01105   1.87951
    D1        2.46119   0.00090   0.00730   0.14697   0.15420   2.61540
    D2        0.32608   0.00052   0.00411   0.13758   0.14169   0.46777
    D3       -1.68937   0.00148   0.01066   0.16088   0.17151  -1.51785
    D4       -1.73861   0.00119   0.00714   0.15092   0.15805  -1.58056
    D5        2.40947   0.00081   0.00395   0.14153   0.14554   2.55500
    D6        0.39401   0.00178   0.01051   0.16483   0.17536   0.56937
    D7        0.37767   0.00090   0.00781   0.14768   0.15546   0.53313
    D8       -1.75743   0.00052   0.00462   0.13829   0.14294  -1.61449
    D9        2.51030   0.00148   0.01117   0.16159   0.17277   2.68307
   D10        0.05158   0.00048   0.00366   0.10950   0.11309   0.16468
   D11       -2.09215   0.00050   0.00017   0.10114   0.10139  -1.99076
   D12        2.18075   0.00067   0.00801   0.11601   0.12390   2.30465
   D13        2.18430   0.00075   0.00852   0.11689   0.12530   2.30960
   D14        0.04056   0.00078   0.00503   0.10853   0.11360   0.15416
   D15       -1.96973   0.00095   0.01287   0.12340   0.13611  -1.83362
   D16       -2.09308   0.00051   0.00032   0.10226   0.10265  -1.99043
   D17        2.04637   0.00053  -0.00318   0.09389   0.09095   2.13732
   D18        0.03609   0.00071   0.00467   0.10877   0.11346   0.14954
   D19        2.58737   0.00126   0.01010   0.17822   0.18827   2.77564
   D20        0.47734   0.00045   0.00625   0.16663   0.17285   0.65019
   D21       -1.60074   0.00188   0.01133   0.19016   0.20148  -1.39926
   D22       -1.56102   0.00200   0.01402   0.19460   0.20861  -1.35241
   D23        2.61213   0.00119   0.01016   0.18302   0.19319   2.80533
   D24        0.53405   0.00263   0.01525   0.20655   0.22182   0.75587
   D25        0.45036   0.00082   0.00705   0.16857   0.17562   0.62599
   D26       -1.65967   0.00002   0.00320   0.15699   0.16021  -1.49946
   D27        2.54544   0.00145   0.00828   0.18052   0.18883   2.73427
   D28        3.12768   0.00001  -0.00163  -0.01390  -0.01556   3.11212
   D29        1.02783   0.00002  -0.00243  -0.01359  -0.01605   1.01178
   D30       -1.05903   0.00013  -0.00110  -0.01207  -0.01319  -1.07222
   D31       -1.02048   0.00013   0.00239  -0.00987  -0.00745  -1.02793
   D32       -3.12033   0.00013   0.00159  -0.00956  -0.00794  -3.12827
   D33        1.07599   0.00025   0.00292  -0.00803  -0.00507   1.07091
   D34        1.02149  -0.00064  -0.00416  -0.02479  -0.02896   0.99253
   D35       -1.07836  -0.00064  -0.00496  -0.02448  -0.02945  -1.10781
   D36        3.11796  -0.00053  -0.00363  -0.02295  -0.02659   3.09138
         Item               Value     Threshold  Converged?
 Maximum Force            0.006055     0.000450     NO 
 RMS     Force            0.001892     0.000300     NO 
 Maximum Displacement     0.548925     0.001800     NO 
 RMS     Displacement     0.159079     0.001200     NO 
 Predicted change in Energy=-5.024993D-03
 GradGradGradGradGradGradGradGradGradGradGradGradGradGradGradGradGradGrad

                          Input orientation:                          
 ---------------------------------------------------------------------
 Center     Atomic      Atomic             Coordinates (Angstroms)
 Number     Number       Type             X           Y           Z
 ---------------------------------------------------------------------
      1          6           0       -0.176068    0.111196   -0.241757
      2          6           0        1.126623    0.933430   -0.225068
      3          6           0        1.726033    1.245165    1.175088
      4          6           0        1.091492    0.520087    2.374266
      5          6           0        2.037578    0.483683    3.576377
      6          1           0       -0.785136    0.377405   -1.110686
      7          1           0        0.019315   -0.964080   -0.297092
      8          1           0       -0.791227    0.290334    0.647423
      9          1           0        1.573172   -0.006518    4.438377
     10          1           0        0.949660    1.876368   -0.751523
     11          1           0        1.884759    0.416615   -0.821475
     12          1           0        1.674918    2.325716    1.348082
     13          1           0        2.797360    1.011261    1.166119
     14          1           0        0.812838   -0.507055    2.106266
     15          1           0        0.164861    1.027016    2.669323
     16          1           0        2.325475    1.497025    3.879280
     17          1           0        2.954347   -0.062647    3.328000
 ---------------------------------------------------------------------
                    Distance matrix (angstroms):
                    1          2          3          4          5
     1  C    0.000000
     2  C    1.540568   0.000000
     3  C    2.628939   1.554640   0.000000
     4  C    2.935554   2.632228   1.538314   0.000000
     5  C    4.429122   3.934857   2.538327   1.530188   0.000000
     6  H    1.094015   2.179061   3.504817   3.960680   5.472438
     7  H    1.094283   2.198150   3.156100   3.238591   4.601431
     8  H    1.095971   2.202944   2.743488   2.565035   4.076554
     9  H    4.997735   4.778141   3.498448   2.184006   1.094995
    10  H    2.154752   1.094351   2.170945   3.410305   4.674811
    11  H    2.162490   1.094335   2.167476   3.294350   4.401018
    12  H    3.295123   2.171149   1.095505   2.157252   2.913745
    13  H    3.410793   2.175505   1.096601   2.147291   2.581657
    14  H    2.621713   2.758364   2.184329   1.097494   2.154711
    15  H    3.070724   3.051433   2.172000   1.096667   2.150588
    16  H    5.016092   4.312836   2.781262   2.177656   1.096128
    17  H    4.751092   4.117892   2.802527   2.172421   1.095734
                    6          7          8          9         10
     6  H    0.000000
     7  H    1.763139   0.000000
     8  H    1.760275   1.767100   0.000000
     9  H    6.041616   5.075044   4.477704   0.000000
    10  H    2.320648   3.023276   2.739205   5.555997   0.000000
    11  H    2.685800   2.379323   3.055243   5.286036   1.734988
    12  H    3.986643   4.033656   3.273465   3.872931   2.266331
    13  H    4.291841   3.709515   3.696856   3.638981   2.799957
    14  H    3.699266   2.571902   2.310211   2.503476   3.723759
    15  H    3.951323   3.575649   2.354757   2.486179   3.611024
    16  H    5.985750   5.368193   4.649175   1.771776   4.845731
    17  H    5.820594   4.750609   4.619460   1.773058   4.941766
                   11         12         13         14         15
    11  H    0.000000
    12  H    2.897530   0.000000
    13  H    2.266490   1.738039   0.000000
    14  H    3.251745   3.056569   2.669736   0.000000
    15  H    3.939074   2.390098   3.031488   1.757919   0.000000
    16  H    4.843409   2.741700   2.796405   3.073757   2.520547
    17  H    4.311827   3.355785   2.419018   2.505233   3.066341
                   16         17
    16  H    0.000000
    17  H    1.769736   0.000000
 Stoichiometry    C5H12
 Framework group  C1[X(C5H12)]
 Deg. of freedom    45
 Full point group                 C1      NOp   1
 Largest Abelian subgroup         C1      NOp   1
 Largest concise Abelian subgroup C1      NOp   1
                         Standard orientation:                         
 ---------------------------------------------------------------------
 Center     Atomic      Atomic             Coordinates (Angstroms)
 Number     Number       Type             X           Y           Z
 ---------------------------------------------------------------------
      1          6           0        1.991492   -0.777973    0.029931
      2          6           0        1.450940    0.663011    0.098628
[...]
 ! A21   A(3,4,15)             109.8361         -DE/DX =    0.0                 !
 ! A22   A(5,4,14)             109.7607         -DE/DX =    0.0                 !
 ! A23   A(5,4,15)             109.2923         -DE/DX =    0.0                 !
 ! A24   A(14,4,15)            106.3615         -DE/DX =    0.0                 !
 ! A25   A(4,5,9)              111.6605         -DE/DX =    0.0                 !
 ! A26   A(4,5,16)             110.794          -DE/DX =    0.0                 !
 ! A27   A(4,5,17)             110.8985         -DE/DX =    0.0                 !
 ! A28   A(9,5,16)             107.8464         -DE/DX =    0.0                 !
 ! A29   A(9,5,17)             107.9094         -DE/DX =    0.0                 !
 ! A30   A(16,5,17)            107.5675         -DE/DX =    0.0                 !
 ! D1    D(6,1,2,3)            174.5696         -DE/DX =    0.0                 !
 ! D2    D(6,1,2,10)            52.8071         -DE/DX =    0.0                 !
 ! D3    D(6,1,2,11)           -63.2169         -DE/DX =    0.0                 !
 ! D4    D(7,1,2,3)            -65.3386         -DE/DX =    0.0                 !
 ! D5    D(7,1,2,10)           172.899          -DE/DX =    0.0                 !
 ! D6    D(7,1,2,11)            56.8749         -DE/DX =    0.0                 !
 ! D7    D(8,1,2,3)             54.6691         -DE/DX =    0.0                 !
 ! D8    D(8,1,2,10)           -67.0933         -DE/DX =    0.0                 !
 ! D9    D(8,1,2,11)           176.8827         -DE/DX =    0.0                 !
 ! D10   D(1,2,3,4)             61.738          -DE/DX =    0.0                 !
 ! D11   D(1,2,3,12)           -60.6258         -DE/DX =    0.0                 !
 ! D12   D(1,2,3,13)          -176.4116         -DE/DX =    0.0                 !
 ! D13   D(10,2,3,4)          -176.3467         -DE/DX =    0.0                 !
 ! D14   D(10,2,3,12)           61.2894         -DE/DX =    0.0                 !
 ! D15   D(10,2,3,13)          -54.4963         -DE/DX =    0.0                 !
 ! D16   D(11,2,3,4)           -60.6674         -DE/DX =    0.0                 !
 ! D17   D(11,2,3,12)          176.9687         -DE/DX =    0.0                 !
 ! D18   D(11,2,3,13)           61.183          -DE/DX =    0.0                 !
 ! D19   D(2,3,4,5)            174.9679         -DE/DX =    0.0                 !
 ! D20   D(2,3,4,14)            53.0362         -DE/DX =    0.0                 !
 ! D21   D(2,3,4,15)           -63.2071         -DE/DX =    0.0                 !
 ! D22   D(12,3,4,5)           -62.5336         -DE/DX =    0.0                 !
 ! D23   D(12,3,4,14)          175.5346         -DE/DX =    0.0                 !
 ! D24   D(12,3,4,15)           59.2914         -DE/DX =    0.0                 !
 ! D25   D(13,3,4,5)            52.9131         -DE/DX =    0.0                 !
 ! D26   D(13,3,4,14)          -69.0186         -DE/DX =    0.0                 !
 ! D27   D(13,3,4,15)          174.7381         -DE/DX =    0.0                 !
 ! D28   D(3,4,5,9)            179.4291         -DE/DX =    0.0                 !
 ! D29   D(3,4,5,16)            59.1945         -DE/DX =    0.0                 !
 ! D30   D(3,4,5,17)           -60.185          -DE/DX =    0.0                 !
 ! D31   D(14,4,5,9)           -58.9934         -DE/DX =    0.0                 !
 ! D32   D(14,4,5,16)         -179.228          -DE/DX =    0.0                 !
 ! D33   D(14,4,5,17)           61.3924         -DE/DX =    0.0                 !
 ! D34   D(15,4,5,9)            57.2946         -DE/DX =    0.0                 !
 ! D35   D(15,4,5,16)          -62.94           -DE/DX =    0.0                 !
 ! D36   D(15,4,5,17)          177.6805         -DE/DX =    0.0                 !
 --------------------------------------------------------------------------------
 GradGradGradGradGradGradGradGradGradGradGradGradGradGradGradGradGradGrad

                          Input orientation:                          
 ---------------------------------------------------------------------
 Center     Atomic      Atomic             Coordinates (Angstroms)
 Number     Number       Type             X           Y           Z
 ---------------------------------------------------------------------
      1          6           0       -0.386880    0.575143   -0.227981
      2          6           0        1.127976    0.773349   -0.194369
      3          6           0        1.662157    1.169427    1.184107
      4          6           0        1.414888    0.125092    2.272807
      5          6           0        2.069703    0.505060    3.598742
      6          1           0       -0.738842    0.387801   -1.246555
      7          1           0       -0.696211   -0.273793    0.389031
      8          1           0       -0.903819    1.465614    0.147287
      9          1           0        1.878154   -0.243628    4.372785
     10          1           0        1.406601    1.546978   -0.919478
     11          1           0        1.625121   -0.149278   -0.521286
     12          1           0        1.206371    2.121855    1.490385
     13          1           0        2.742055    1.354981    1.111709
     14          1           0        1.799152   -0.846455    1.933821
     15          1           0        0.336950   -0.005284    2.425363
     16          1           0        1.687979    1.466195    3.959593
     17          1           0        3.154645    0.601943    3.485039
 ---------------------------------------------------------------------
                    Distance matrix (angstroms):
                    1          2          3          4          5
     1  C    0.000000
     2  C    1.528137   0.000000
     3  C    2.558460   1.530497   0.000000
     4  C    3.114940   2.567005   1.528740   0.000000
     5  C    4.547914   3.917464   2.537310   1.526848   0.000000
     6  H    1.093831   2.177327   3.504833   4.134426   5.601659
     7  H    1.094112   2.182778   2.876965   2.857352   4.308032
     8  H    1.095898   2.173511   2.783335   3.419245   4.655861
     9  H    5.193055   4.738767   3.494431   2.181852   1.093786
    10  H    2.153881   1.096319   2.152422   3.494640   4.683974
    11  H    2.158463   1.097847   2.156089   2.815393   4.195289
    12  H    2.807766   2.159400   1.099393   2.154699   2.793660
    13  H    3.491869   2.156243   1.098113   2.149919   2.712888
    14  H    3.387191   2.757433   2.155138   1.098396   2.161424
    15  H    2.810883   2.845170   2.162599   1.096458   2.153997
    16  H    4.757603   4.248416   2.791426   2.172184   1.095311
    17  H    5.131241   4.204142   2.800687   2.173396   1.095178
                    6          7          8          9         10
     6  H    0.000000
     7  H    1.764841   0.000000
     8  H    1.769660   1.768354   0.000000
     9  H    6.230920   4.743266   5.340011   0.000000
    10  H    2.460406   3.073958   2.546104   5.606842   0.000000
    11  H    2.530373   2.496551   3.074151   4.901517   1.756016
    12  H    3.779106   3.251450   2.586013   3.788804   2.485561
    13  H    4.314336   3.872576   3.772896   3.733162   2.438446
    14  H    4.252011   2.990177   3.980379   2.513601   3.744854
    15  H    3.846405   2.299167   2.982060   2.494909   3.839483
    16  H    5.844345   4.632584   4.609890   1.769290   4.887845
    17  H    6.131320   5.018095   5.325190   1.769891   4.832030
                   11         12         13         14         15
    11  H    0.000000
    12  H    3.062714   0.000000
    13  H    2.485359   1.757787   0.000000
    14  H    2.558104   3.059230   2.532046   0.000000
    15  H    3.219140   2.480886   3.059500   1.757048   0.000000
    16  H    4.763610   2.599774   3.038731   3.076436   2.518807
    17  H    4.353667   3.175618   2.523885   2.518233   3.071000
                   16         17
    16  H    0.000000
    17  H    1.767270   0.000000
 Stoichiometry    C5H12
 Framework group  C1[X(C5H12)]
 Deg. of freedom    45
 Full point group                 C1      NOp   1
 Largest Abelian subgroup         C1      NOp   1
 Largest concise Abelian subgroup C1      NOp   1
                         Standard orientation:                         
 ---------------------------------------------------------------------
 Center     Atomic      Atomic             Coordinates (Angstroms)
 Number     Number       Type             X           Y           Z
 ---------------------------------------------------------------------
      1          6           0        2.092146   -0.683705   -0.168239
      2          6           0        1.397066    0.612001    0.247954
      3          6           0       -0.049757    0.713693   -0.240701
      4          6           0       -0.971142   -0.376801    0.306032
      5          6           0       -2.425831   -0.166314   -0.107293
      6          1           0        3.148147   -0.675350    0.116819
      7          1           0        1.630826   -1.557564    0.301479
      8          1           0        2.038697   -0.822022   -1.254059
      9          1           0       -3.074240   -0.957158    0.280650
     10          1           0        1.964323    1.466194   -0.139975
     11          1           0        1.414341    0.701459    1.342014
     12          1           0       -0.065367    0.679008   -1.339437
     13          1           0       -0.456687    1.693822    0.041446
     14          1           0       -0.895482   -0.396292    1.401646
     15          1           0       -0.633515   -1.359357   -0.044417
     16          1           0       -2.522744   -0.157769   -1.198275
     17          1           0       -2.803192    0.791790    0.265600
 ---------------------------------------------------------------------
 Rotational constants (GHZ):          11.6458839           2.3192099           2.1287293

 **********************************************************************

            Population analysis using the SCF density.

 **********************************************************************

 Orbital symmetries:
       Occupied  (A) (A) (A) (A) (A) (A) (A) (A) (A) (A) (A) (A)
                 (A) (A) (A) (A) (A) (A) (A) (A) (A)
       Virtual   (A) (A) (A) (A) (A) (A) (A) (A) (A) (A) (A) (A)
                 (A) (A) (A) (A) (A) (A) (A) (A) (A) (A) (A) (A)
                 (A) (A) (A) (A) (A) (A) (A) (A) (A) (A) (A) (A)
                 (A) (A) (A) (A) (A) (A) (A) (A) (A) (A) (A) (A)
                 (A) (A) (A) (A) (A) (A) (A) (A) (A) (A) (A) (A)
                 (A) (A) (A) (A) (A) (A) (A) (A) (A) (A) (A) (A)
                 (A) (A) (A) (A) (A) (A)
 The electronic state is 1-A.
 Alpha  occ. eigenvalues --  -10.53450 -10.53399 -10.53247 -10.52792 -10.52763
 Alpha  occ. eigenvalues --   -0.89803  -0.83964  -0.76095  -0.69004  -0.64014
 Alpha  occ. eigenvalues --   -0.53522  -0.51072  -0.49691  -0.47334  -0.44478
 Alpha  occ. eigenvalues --   -0.42961  -0.41507  -0.39737  -0.37550  -0.37416
 Alpha  occ. eigenvalues --   -0.36510
 Alpha virt. eigenvalues --    0.13228   0.15992   0.17200   0.17718   0.20805
 Alpha virt. eigenvalues --    0.21534   0.21651   0.22954   0.23454   0.23663
 Alpha virt. eigenvalues --    0.24850   0.26244   0.28979   0.29778   0.31109
 Alpha virt. eigenvalues --    0.32578   0.54508   0.55735   0.57925   0.58926
 Alpha virt. eigenvalues --    0.60060   0.62763   0.64136   0.72527   0.73227
 Alpha virt. eigenvalues --    0.74954   0.76246   0.78285   0.85566   0.90985
 Alpha virt. eigenvalues --    0.93544   0.94146   0.95245   0.96814   0.97484
 Alpha virt. eigenvalues --    0.98589   0.99187   1.02375   1.03248   1.03891
 Alpha virt. eigenvalues --    1.04665   1.05851   1.09011   1.11913   1.31316
 Alpha virt. eigenvalues --    1.46896   1.48586   1.49954   1.60940   1.63731
 Alpha virt. eigenvalues --    1.72569   1.73617   1.86996   1.89983   1.96552
 Alpha virt. eigenvalues --    1.99758   2.02210   2.04323   2.05549   2.09682
 Alpha virt. eigenvalues --    2.19540   2.22821   2.29997   2.35673   2.36941
 Alpha virt. eigenvalues --    2.40404   2.40907   2.45404   2.49542   2.60316
 Alpha virt. eigenvalues --    2.64872   2.72301   2.80068   4.15589   4.25023
 Alpha virt. eigenvalues --    4.36073   4.45805   4.56305
          Condensed to atoms (all electrons):
               1          2          3          4          5          6
     1  C    5.106515   0.361775  -0.052566  -0.004459   0.000129   0.382426
     2  C    0.361775   5.011228   0.372971  -0.047162   0.004308  -0.030222
     3  C   -0.052566   0.372971   5.037420   0.375574  -0.049892   0.004491
     4  C   -0.004459  -0.047162   0.375574   5.018963   0.363911   0.000116
     5  C    0.000129   0.004308  -0.049892   0.363911   5.093074  -0.000001
     6  H    0.382426  -0.030222   0.004491   0.000116  -0.000001   0.546652
     7  H    0.384345  -0.034062  -0.005574   0.003349  -0.000041  -0.028700
     8  H    0.383489  -0.038632  -0.003614  -0.000917  -0.000038  -0.028378
     9  H    0.000005  -0.000143   0.004375  -0.030133   0.381153  -0.000000
    10  H   -0.039782   0.387236  -0.036130   0.004907  -0.000137  -0.003893
    11  H   -0.040735   0.385478  -0.039806  -0.006544   0.000002  -0.002188
    12  H   -0.005950  -0.038115   0.380548  -0.042352  -0.002773  -0.000039
    13  H    0.005099  -0.035869   0.385049  -0.043544  -0.003666  -0.000129
    14  H   -0.000948  -0.001985  -0.044760   0.386756  -0.038042  -0.000037
    15  H    0.003370  -0.005032  -0.038280   0.386615  -0.038133  -0.000019
    16  H   -0.000016   0.000082  -0.004268  -0.036528   0.384232  -0.000000
    17  H    0.000003  -0.000033  -0.004687  -0.036352   0.384238   0.000000
               7          8          9         10         11         12
     1  C    0.384345   0.383489   0.000005  -0.039782  -0.040735  -0.005950
     2  C   -0.034062  -0.038632  -0.000143   0.387236   0.385478  -0.038115
     3  C   -0.005574  -0.003614   0.004375  -0.036130  -0.039806   0.380548
     4  C    0.003349  -0.000917  -0.030133   0.004907  -0.006544  -0.042352
     5  C   -0.000041  -0.000038   0.381153  -0.000137   0.000002  -0.002773
     6  H   -0.028700  -0.028378  -0.000000  -0.003893  -0.002188  -0.000039
     7  H    0.550524  -0.030566   0.000005   0.004710  -0.004596  -0.000059
     8  H   -0.030566   0.557093   0.000000  -0.003364   0.005006   0.005067
     9  H    0.000005   0.000000   0.548359   0.000002  -0.000000  -0.000059
    10  H    0.004710  -0.003364   0.000002   0.576441  -0.034025  -0.003299
    11  H   -0.004596   0.005006  -0.000000  -0.034025   0.582877   0.005518
    12  H   -0.000059   0.005067  -0.000059  -0.003299   0.005518   0.590318
    13  H   -0.000060   0.000023   0.000022  -0.003621  -0.003200  -0.034655
    14  H    0.000546   0.000113  -0.002715   0.000027   0.005188   0.005629
    15  H    0.000699   0.000432  -0.002659  -0.000068  -0.000110  -0.005393
    16  H    0.000008   0.000002  -0.028622   0.000003   0.000006   0.004201
    17  H   -0.000001   0.000000  -0.028511  -0.000005   0.000003  -0.000302
              13         14         15         16         17
     1  C    0.005099  -0.000948   0.003370  -0.000016   0.000003
     2  C   -0.035869  -0.001985  -0.005032   0.000082  -0.000033
     3  C    0.385049  -0.044760  -0.038280  -0.004268  -0.004687
     4  C   -0.043544   0.386756   0.386615  -0.036528  -0.036352
     5  C   -0.003666  -0.038042  -0.038133   0.384232   0.384238
     6  H   -0.000129  -0.000037  -0.000019  -0.000000   0.000000
     7  H   -0.000060   0.000546   0.000699   0.000008  -0.000001
     8  H    0.000023   0.000113   0.000432   0.000002   0.000000
     9  H    0.000022  -0.002715  -0.002659  -0.028622  -0.028511
    10  H   -0.003621   0.000027  -0.000068   0.000003  -0.000005
    11  H   -0.003200   0.005188  -0.000110   0.000006   0.000003
    12  H   -0.034655   0.005629  -0.005393   0.004201  -0.000302
    13  H    0.583824  -0.004199   0.005360  -0.000371   0.004917
    14  H   -0.004199   0.583779  -0.036312   0.004895  -0.004301
    15  H    0.005360  -0.036312   0.577424  -0.004265   0.004860
    16  H   -0.000371   0.004895  -0.004265   0.555617  -0.030421
    17  H    0.004917  -0.004301   0.004860  -0.030421   0.555474
 Mulliken charges:
               1
     1  C   -0.482701
     2  C   -0.291823
     3  C   -0.280852
     4  C   -0.292200
     5  C   -0.478324
     6  H    0.159921
     7  H    0.159471
     8  H    0.154284
     9  H    0.158922
    10  H    0.150998
    11  H    0.147126
    12  H    0.141718
    13  H    0.145020
    14  H    0.146366
    15  H    0.151511
    16  H    0.155447
    17  H    0.155118
 Sum of Mulliken charges =  -0.00000
 Mulliken charges with hydrogens summed into heavy atoms:
               1
     1  C   -0.009026
     2  C    0.006301
     3  C    0.005886
     4  C    0.005677
     5  C   -0.008838
 Electronic spatial extent (au):  <R**2>=            646.5847
 Charge=              0.0000 electrons
 Dipole moment (field-independent basis, Debye):
    X=              0.0312    Y=              0.0128    Z=              0.0261  Tot=              0.0426
 Quadrupole moment (field-independent basis, Debye-Ang):
   XX=            -35.3130   YY=            -34.9462   ZZ=            -34.6498
   XY=              0.2149   XZ=             -0.1317   YZ=              0.0538
 Traceless Quadrupole moment (field-independent basis, Debye-Ang):
   XX=             -0.3434   YY=              0.0235   ZZ=              0.3199
   XY=              0.2149   XZ=             -0.1317   YZ=              0.0538
 Octapole moment (field-independent basis, Debye-Ang**2):
  XXX=              2.3268  YYY=              0.2695  ZZZ=             -0.5416  XYY=             -0.9517
  XXY=              0.3236  XXZ=              0.8353  XZZ=             -0.0847  YZZ=             -0.0895
  YYZ=              0.5057  XYZ=             -0.4035
 Hexadecapole moment (field-independent basis, Debye-Ang**3):
 XXXX=           -668.5465 YYYY=           -142.7667 ZZZZ=            -80.8308 XXXY=              3.4203
 XXXZ=             -0.7709 YYYX=              1.3255 YYYZ=             -0.3178 ZZZX=              0.5514
 ZZZY=              0.7139 XXYY=           -134.4889 XXZZ=           -125.7537 YYZZ=            -39.1399
 XXYZ=             -1.0911 YYXZ=             -1.3580 ZZXY=              0.1570
 N-N= 1.877089194043D+02 E-N=-8.314529723070D+02  KE= 1.958247406370D+02
 1\1\GINC-ROBERTS-MACBOOK-PRO-2\FOpt\RM062X\6-31G(d)\C5H12\ROBERT.PATON
 \21-Sep-2018\0\\# opt=(maxcycles=160) M062X/6-31G(d) emp=GD3\\Generate
 d by prepare_file.py\\0,1\C,-0.386879803,0.5751427732,-0.2279812914\C,
 1.1279761794,0.7733491251,-0.1943690151\C,1.6621567425,1.1694269788,1.
 1841068839\C,1.4148875877,0.1250919434,2.2728071451\C,2.0697030258,0.5
 050602584,3.5987423439\H,-0.7388418611,0.3878006112,-1.2465552455\H,-0
 .6962111679,-0.2737925183,0.3890305471\H,-0.9038189705,1.4656144716,0.
 1472873325\H,1.8781542064,-0.2436278638,4.3727853988\H,1.4066009003,1.
 5469775968,-0.9194779349\H,1.6251212194,-0.1492779873,-0.5212864279\H,
 1.2063711495,2.1218549683,1.4903850124\H,2.7420551726,1.3549811407,1.1
 117087864\H,1.7991515196,-0.846455337,1.9338213288\H,0.3369498434,-0.0
 052837815,2.425363393\H,1.6879790641,1.4661948685,3.9595927938\H,3.154
 6451917,0.6019427519,3.4850389491\\Version=EM64M-G16RevA.03\State=1-A\
 HF=-197.6496426\RMSD=4.150e-09\RMSF=1.883e-06\Dipole=0.0026027,-0.0059
 952,-0.0154529\Quadrupole=-0.0568877,0.1735665,-0.1166788,-0.1577242,-
 0.2094896,-0.0740305\PG=C01 [X(C5H12)]\\@


 IN THE FIGHT BETWEEN YOU AND THE WORLD, BACK THE WORLD

                                        -- FRANZ KAFKA
 Job cpu time:       0 days  0 hours 26 minutes  4.0 seconds.
 Elapsed time:       0 days  0 hours  7 minutes 29.9 seconds.
 File lengths (MBytes):  RWF=     10 Int=      0 D2E=      0 Chk=      2 Scr=      1
 Normal termination of Gaussian 16 at Fri Sep 21 22:40:05 2018.
