 Entering Gaussian System, Link 0=g16
 Initial command:
 /Applications/g16/l1.exe "/var/folders/hc/gtglrcdn25lc_0x4jfkqf1nh0000gn/T/Gau-27546.inp" -scrdir="/var/folders/hc/gtglrcdn25lc_0x4jfkqf1nh0000gn/T/"
 Entering Link 1 = /Applications/g16/l1.exe PID=     27547.
  
 Copyright (c) 1988,1990,1992,1993,1995,1998,2003,2009,2016,
            Gaussian, Inc.  All Rights Reserved.
  
 This is part of the Gaussian(R) 16 program.  It is based on
 the Gaussian(R) 09 system (copyright 2009, Gaussian, Inc.),
 the Gaussian(R) 03 system (copyright 2003, Gaussian, Inc.),
 the Gaussian(R) 98 system (copyright 1998, Gaussian, Inc.),
 the Gaussian(R) 94 system (copyright 1995, Gaussian, Inc.),
 the Gaussian 92(TM) system (copyright 1992, Gaussian, Inc.),
 the Gaussian 90(TM) system (copyright 1990, Gaussian, Inc.),
 the Gaussian 88(TM) system (copyright 1988, Gaussian, Inc.),
 the Gaussian 86(TM) system (copyright 1986, Carnegie Mellon
 University), and the Gaussian 82(TM) system (copyright 1983,
 Carnegie Mellon University). Gaussian is a federally registered
 trademark of Gaussian, Inc.
  
 This software contains proprietary and confidential information,
 including trade secrets, belonging to Gaussian, Inc.
  
 This software is provided under written license and may be
 used, copied, transmitted, or stored only in accord with that
 written license.
  
 The following legend is applicable only to US Government
 contracts under FAR:
  
                    RESTRICTED RIGHTS LEGEND
  
 Use, reproduction and disclosure by the US Government is
 subject to restrictions as set forth in subparagraphs (a)
 and (c) of the Commercial Computer Software - Restricted
 Rights clause in FAR 52.227-19.
  
 Gaussian, Inc.
 340 Quinnipiac St., Bldg. 40, Wallingford CT 06492
  
  
 ---------------------------------------------------------------
 Warning -- This program may not be used in any manner that
 competes with the business of Gaussian, Inc. or will provide
 assistance to any competitor of Gaussian, Inc.  The licensee
 of this program is prohibited from giving any competitor of
 Gaussian, Inc. access to this program.  By using this program,
 the user acknowledges that Gaussian, Inc. is engaged in the
 business of creating and licensing software in the field of
 computational chemistry and represents and warrants to the
 licensee that it is not a competitor of Gaussian, Inc. and that
 it will not use this program in any manner prohibited above.
 ---------------------------------------------------------------
  

 Cite this work as:
 Gaussian 16, Revision A.03,
 M. J. Frisch, G. W. Trucks, H. B. Schlegel, G. E. Scuseria, 
 M. A. Robb, J. R. Cheeseman, G. Scalmani, V. Barone, 
 G. A. Petersson, H. Nakatsuji, X. Li, M. Caricato, A. V. Marenich, 
 J. Bloino, B. G. Janesko, R. Gomperts, B. Mennucci, H. P. Hratchian, 
 J. V. Ortiz, A. F. Izmaylov, J. L. Sonnenberg, D. Williams-Young, 
 F. Ding, F. Lipparini, F. Egidi, J. Goings, B. Peng, A. Petrone, 
 T. Henderson, D. Ranasinghe, V. G. Zakrzewski, J. Gao, N. Rega, 
 G. Zheng, W. Liang, M. Hada, M. Ehara, K. Toyota, R. Fukuda, 
 J. Hasegawa, M. Ishida, T. Nakajima, Y. Honda, O. Kitao, H. Nakai, 
 T. Vreven, K. Throssell, J. A. Montgomery, Jr., J. E. Peralta, 
 F. Ogliaro, M. J. Bearpark, J. J. Heyd, E. N. Brothers, K. N. Kudin, 
 V. N. Staroverov, T. A. Keith, R. Kobayashi, J. Normand, 
 K. Raghavachari, A. P. Rendell, J. C. Burant, S. S. Iyengar, 
 J. Tomasi, M. Cossi, J. M. Millam, M. Klene, C. Adamo, R. Cammi, 
 J. W. Ochterski, R. L. Martin, K. Morokuma, O. Farkas, 
 J. B. Foresman, and D. J. Fox, Gaussian, Inc., Wallingford CT, 2016.
 
 ******************************************
 Gaussian 16:  EM64M-G16RevA.03 25-Dec-2016
                21-Sep-2018 
 ******************************************
 %mem=1GB
 %nprocshared=4
 Will use up to    4 processors via shared memory.
 %chk=pentane_9.chk
 --------------------------------------------
 # opt=(maxcycles=160) M062X/6-31G(d) emp=GD3
 --------------------------------------------
 1/6=160,18=20,19=15,26=3,38=1/1,3;
 2/9=110,12=2,17=6,18=5,40=1/2;
 3/5=1,6=6,7=1,11=2,25=1,30=1,71=1,74=-55,124=31/1,2,3;
 4//1;
 5/5=2,38=5/2;
 6/7=2,8=2,9=2,10=2,28=1/1;
 7//1,2,3,16;
 1/6=160,18=20,19=15,26=3/3(2);
 2/9=110/2;
 99//99;
 2/9=110/2;
 3/5=1,6=6,7=1,11=2,25=1,30=1,71=1,74=-55,124=31/1,2,3;
 4/5=5,16=3,69=1/1;
 5/5=2,38=5/2;
 7//1,2,3,16;
 1/6=160,18=20,19=15,26=3/3(-5);
 2/9=110/2;
 6/7=2,8=2,9=2,10=2,19=2,28=1/1;
 99/9=1/99;
 ----------------------------
 Generated by prepare_file.py
 ----------------------------
 Symbolic Z-matrix:
 Charge =  0 Multiplicity = 1
 C                     0.        0.        0. 
 C                     1.171     0.975    -0.22 
 C                     1.752     1.396     1.143 
 C                     0.765     2.343     1.85 
 C                    -0.458     1.542     2.334 
 H                    -0.785     0.244    -0.653 
 H                     0.322    -0.981    -0.19 
 H                    -0.335     0.073     0.993 
 H                    -1.131     2.189     2.816 
 H                     0.828     1.825    -0.731 
 H                     1.917     0.503    -0.787 
 H                     2.667     1.891     0.996 
 H                     1.906     0.544     1.737 
 H                     0.453     3.089     1.181 
 H                     1.239     2.789     2.675 
 H                    -0.147     0.799     3.008 
 H                    -0.932     1.094     1.511 
 

 GradGradGradGradGradGradGradGradGradGradGradGradGradGradGradGradGradGrad
 Berny optimization.
 Initialization pass.
                           ----------------------------
                           !    Initial Parameters    !
                           ! (Angstroms and Degrees)  !
 --------------------------                            --------------------------
 ! Name  Definition              Value          Derivative Info.                !
 --------------------------------------------------------------------------------
 ! R1    R(1,2)                  1.5396         estimate D2E/DX2                !
 ! R2    R(1,6)                  1.0498         estimate D2E/DX2                !
 ! R3    R(1,7)                  1.0498         estimate D2E/DX2                !
 ! R4    R(1,8)                  1.0505         estimate D2E/DX2                !
 ! R5    R(2,3)                  1.5403         estimate D2E/DX2                !
 ! R6    R(2,10)                 1.0494         estimate D2E/DX2                !
 ! R7    R(2,11)                 1.0492         estimate D2E/DX2                !
 ! R8    R(3,4)                  1.5397         estimate D2E/DX2                !
 ! R9    R(3,12)                 1.0506         estimate D2E/DX2                !
 ! R10   R(3,13)                 1.05           estimate D2E/DX2                !
 ! R11   R(4,5)                  1.54           estimate D2E/DX2                !
 ! R12   R(4,14)                 1.0495         estimate D2E/DX2                !
 ! R13   R(4,15)                 1.0508         estimate D2E/DX2                !
 ! R14   R(5,9)                  1.0506         estimate D2E/DX2                !
 ! R15   R(5,16)                 1.0503         estimate D2E/DX2                !
 ! R16   R(5,17)                 1.0501         estimate D2E/DX2                !
 ! A1    A(2,1,6)              109.4301         estimate D2E/DX2                !
 ! A2    A(2,1,7)              109.428          estimate D2E/DX2                !
 ! A3    A(2,1,8)              109.4882         estimate D2E/DX2                !
 ! A4    A(6,1,7)              109.5086         estimate D2E/DX2                !
 ! A5    A(6,1,8)              109.472          estimate D2E/DX2                !
 ! A6    A(7,1,8)              109.5003         estimate D2E/DX2                !
 ! A7    A(1,2,3)              109.4839         estimate D2E/DX2                !
 ! A8    A(1,2,10)             109.5077         estimate D2E/DX2                !
 ! A9    A(1,2,11)             109.459          estimate D2E/DX2                !
 ! A10   A(3,2,10)             109.438          estimate D2E/DX2                !
 ! A11   A(3,2,11)             109.4492         estimate D2E/DX2                !
 ! A12   A(10,2,11)            109.4895         estimate D2E/DX2                !
 ! A13   A(2,3,4)              109.428          estimate D2E/DX2                !
 ! A14   A(2,3,12)             109.479          estimate D2E/DX2                !
 ! A15   A(2,3,13)             109.5202         estimate D2E/DX2                !
 ! A16   A(4,3,12)             109.4346         estimate D2E/DX2                !
 ! A17   A(4,3,13)             109.4706         estimate D2E/DX2                !
 ! A18   A(12,3,13)            109.4949         estimate D2E/DX2                !
 ! A19   A(3,4,5)              109.4799         estimate D2E/DX2                !
 ! A20   A(3,4,14)             109.5756         estimate D2E/DX2                !
 ! A21   A(3,4,15)             109.4137         estimate D2E/DX2                !
 ! A22   A(5,4,14)             109.51           estimate D2E/DX2                !
 ! A23   A(5,4,15)             109.4048         estimate D2E/DX2                !
 ! A24   A(14,4,15)            109.4432         estimate D2E/DX2                !
 ! A25   A(4,5,9)              109.4257         estimate D2E/DX2                !
 ! A26   A(4,5,16)             109.5417         estimate D2E/DX2                !
 ! A27   A(4,5,17)             109.5151         estimate D2E/DX2                !
 ! A28   A(9,5,16)             109.3247         estimate D2E/DX2                !
 ! A29   A(9,5,17)             109.459          estimate D2E/DX2                !
 ! A30   A(16,5,17)            109.5609         estimate D2E/DX2                !
 ! D1    D(6,1,2,3)            137.7376         estimate D2E/DX2                !
 ! D2    D(6,1,2,10)            17.7482         estimate D2E/DX2                !
 ! D3    D(6,1,2,11)          -102.2891         estimate D2E/DX2                !
 ! D4    D(7,1,2,3)           -102.2681         estimate D2E/DX2                !
 ! D5    D(7,1,2,10)           137.7425         estimate D2E/DX2                !
 ! D6    D(7,1,2,11)            17.7052         estimate D2E/DX2                !
 ! D7    D(8,1,2,3)             17.7515         estimate D2E/DX2                !
 ! D8    D(8,1,2,10)          -102.2379         estimate D2E/DX2                !
 ! D9    D(8,1,2,11)           137.7248         estimate D2E/DX2                !
 ! D10   D(1,2,3,4)            -72.008          estimate D2E/DX2                !
 ! D11   D(1,2,3,12)           168.0585         estimate D2E/DX2                !
 ! D12   D(1,2,3,13)            47.9948         estimate D2E/DX2                !
 ! D13   D(10,2,3,4)            48.0241         estimate D2E/DX2                !
 ! D14   D(10,2,3,12)          -71.9094         estimate D2E/DX2                !
 ! D15   D(10,2,3,13)          168.0268         estimate D2E/DX2                !
 ! D16   D(11,2,3,4)           168.0127         estimate D2E/DX2                !
 ! D17   D(11,2,3,12)           48.0792         estimate D2E/DX2                !
 ! D18   D(11,2,3,13)          -71.9846         estimate D2E/DX2                !
 ! D19   D(2,3,4,5)             72.0142         estimate D2E/DX2                !
 ! D20   D(2,3,4,14)           -48.1027         estimate D2E/DX2                !
 ! D21   D(2,3,4,15)          -168.097          estimate D2E/DX2                !
 ! D22   D(12,3,4,5)          -168.0251         estimate D2E/DX2                !
 ! D23   D(12,3,4,14)           71.8579         estimate D2E/DX2                !
 ! D24   D(12,3,4,15)          -48.1363         estimate D2E/DX2                !
 ! D25   D(13,3,4,5)           -48.019          estimate D2E/DX2                !
 ! D26   D(13,3,4,14)         -168.1359         estimate D2E/DX2                !
 ! D27   D(13,3,4,15)           71.8698         estimate D2E/DX2                !
 ! D28   D(3,4,5,9)           -179.9833         estimate D2E/DX2                !
 ! D29   D(3,4,5,16)            60.1809         estimate D2E/DX2                !
 ! D30   D(3,4,5,17)           -59.9993         estimate D2E/DX2                !
 ! D31   D(14,4,5,9)           -59.8262         estimate D2E/DX2                !
 ! D32   D(14,4,5,16)         -179.662          estimate D2E/DX2                !
 ! D33   D(14,4,5,17)           60.1578         estimate D2E/DX2                !
 ! D34   D(15,4,5,9)            60.1225         estimate D2E/DX2                !
 ! D35   D(15,4,5,16)          -59.7133         estimate D2E/DX2                !
 ! D36   D(15,4,5,17)         -179.8935         estimate D2E/DX2                !
 --------------------------------------------------------------------------------
 Trust Radius=3.00D-01 FncErr=1.00D-07 GrdErr=1.00D-06 EigMax=2.50D+02 EigMin=1.00D-04
 Number of steps in this run=    102 maximum allowed number of steps=    102.
 GradGradGradGradGradGradGradGradGradGradGradGradGradGradGradGradGradGrad

                          Input orientation:                          
 ---------------------------------------------------------------------
 Center     Atomic      Atomic             Coordinates (Angstroms)
 Number     Number       Type             X           Y           Z
 ---------------------------------------------------------------------
      1          6           0        0.000000    0.000000    0.000000
      2          6           0        1.171000    0.975000   -0.220000
      3          6           0        1.752000    1.396000    1.143000
      4          6           0        0.765000    2.343000    1.850000
      5          6           0       -0.458000    1.542000    2.334000
      6          1           0       -0.785000    0.244000   -0.653000
      7          1           0        0.322000   -0.981000   -0.190000
      8          1           0       -0.335000    0.073000    0.993000
      9          1           0       -1.131000    2.189000    2.816000
     10          1           0        0.828000    1.825000   -0.731000
     11          1           0        1.917000    0.503000   -0.787000
     12          1           0        2.667000    1.891000    0.996000
     13          1           0        1.906000    0.544000    1.737000
     14          1           0        0.453000    3.089000    1.181000
     15          1           0        1.239000    2.789000    2.675000
     16          1           0       -0.147000    0.799000    3.008000
     17          1           0       -0.932000    1.094000    1.511000
 ---------------------------------------------------------------------
                    Distance matrix (angstroms):
                    1          2          3          4          5
     1  C    0.000000
     2  C    1.539567   0.000000
     3  C    2.514909   1.540315   0.000000
     4  C    3.081781   2.514192   1.539749   0.000000
     5  C    2.834622   3.081890   2.514736   1.539995   0.000000
     6  H    1.049843   2.132554   3.314979   3.615703   3.273210
     7  H    1.049831   2.132519   3.077648   3.925153   3.653013
     8  H    1.050525   2.133778   2.475560   2.664085   1.992830
     9  H    3.741756   3.998787   3.426291   2.133469   1.050648
    10  H    2.133207   1.049414   2.133001   2.633221   3.335882
    11  H    2.132432   1.049185   2.132973   3.415622   4.057190
    12  H    3.417716   2.134415   1.050647   2.133360   3.417261
    13  H    2.635515   2.134440   1.049979   2.133319   2.634560
    14  H    3.337947   2.635777   2.134267   1.049486   2.133668
    15  H    4.058234   3.417052   2.133223   1.050817   2.133330
    16  H    3.115778   3.491144   2.727789   2.134630   1.050260
    17  H    2.085325   2.726377   2.725891   2.134182   1.050100
                    6          7          8          9         10
     6  H    0.000000
     7  H    1.714772   0.000000
     8  H    1.714951   1.715242   0.000000
     9  H    3.992080   4.603927   2.904204   0.000000
    10  H    2.259959   2.902129   2.719237   4.068339   0.000000
    11  H    2.717690   2.258913   2.902551   5.011438   1.713692
    12  H    4.165107   3.892815   3.509578   4.222086   2.523649
    13  H    3.611590   2.923698   2.407791   3.618513   2.982293
    14  H    3.604195   4.296708   3.122906   2.447914   2.322513
    15  H    4.652868   4.823071   3.561356   2.448833   3.563573
    16  H    3.757391   3.689928   2.150034   1.713832   3.997927
    17  H    2.329593   2.961679   1.291191   1.715124   2.942537
                   11         12         13         14         15
    11  H    0.000000
    12  H    2.380784   0.000000
    13  H    2.524357   1.715404   0.000000
    14  H    3.564227   2.524129   2.982846   0.000000
    15  H    4.203680   2.380048   2.522847   1.714594   0.000000
    16  H    4.330097   3.627562   2.428019   2.990323   2.447853
    17  H    3.707679   3.721993   2.899624   2.450949   2.990178
                   16         17
    16  H    0.000000
    17  H    1.715884   0.000000
 Stoichiometry    C5H12
 Framework group  C1[X(C5H12)]
 Deg. of freedom    45
 Full point group                 C1      NOp   1
 Largest Abelian subgroup         C1      NOp   1
 Largest concise Abelian subgroup C1      NOp   1
                         Standard orientation:                         
 ---------------------------------------------------------------------
 Center     Atomic      Atomic             Coordinates (Angstroms)
 Number     Number       Type             X           Y           Z
 ---------------------------------------------------------------------
      1          6           0        1.417495    0.958497   -0.064554
      2          6           0        1.257467   -0.533493    0.279861
      3          6           0        0.000008   -1.089133   -0.414856
      4          6           0       -1.256725   -0.533840    0.280199
      5          6           0       -1.417128    0.958505   -0.064422
      6          1           0        1.695642    1.488184    0.798137
      7          1           0        2.159584    1.069747   -0.798770
      8          1           0        0.506014    1.334129   -0.427469
      9          1           0       -2.274678    1.336584    0.410474
     10          1           0        1.160458   -0.644858    1.318831
     11          1           0        2.101609   -1.061177   -0.051445
     12          1           0       -0.000388   -2.137905   -0.352114
     13          1           0       -0.000772   -0.798464   -1.423799
     14          1           0       -1.162054   -0.645368    1.319439
     15          1           0       -2.102071   -1.061845   -0.052693
     16          1           0       -1.517708    1.070179   -1.103873
     17          1           0       -0.572340    1.487581    0.265913
 ---------------------------------------------------------------------
 Rotational constants (GHZ):           6.7854100           4.0062356           2.8829848
 Standard basis: 6-31G(d) (6D, 7F)
 There are    99 symmetry adapted cartesian basis functions of A   symmetry.
 There are    99 symmetry adapted basis functions of A   symmetry.
    99 basis functions,   188 primitive gaussians,    99 cartesian basis functions
    21 alpha electrons       21 beta electrons
       nuclear repulsion energy       198.2976975455 Hartrees.
 NAtoms=   17 NActive=   17 NUniq=   17 SFac= 1.00D+00 NAtFMM=   60 NAOKFM=F Big=F
 Integral buffers will be    131072 words long.
 Raffenetti 2 integral format.
 Two-electron integral symmetry is turned on.
 Nuclear repulsion after empirical dispersion term =      198.2974502929 Hartrees.
 One-electron integrals computed using PRISM.
 NBasis=    99 RedAO= T EigKep=  4.76D-03  NBF=    99
 NBsUse=    99 1.00D-06 EigRej= -1.00D+00 NBFU=    99
 ExpMin= 1.61D-01 ExpMax= 3.05D+03 ExpMxC= 4.57D+02 IAcc=3 IRadAn=         5 AccDes= 0.00D+00
 Harris functional with IExCor= 1009 and IRadAn=       5 diagonalized for initial guess.
 HarFok:  IExCor= 1009 AccDes= 0.00D+00 IRadAn=         5 IDoV= 1 UseB2=F ITyADJ=14
 ICtDFT=  3500011 ScaDFX=  1.000000  1.000000  1.000000  1.000000
 FoFCou: FMM=F IPFlag=           0 FMFlag=      100000 FMFlg1=           0
         NFxFlg=           0 DoJE=T BraDBF=F KetDBF=T FulRan=T
         wScrn=  0.000000 ICntrl=       500 IOpCl=  0 I1Cent=   200000004 NGrid=           0
         NMat0=    1 NMatS0=      1 NMatT0=    0 NMatD0=    1 NMtDS0=    0 NMtDT0=    0
 Petite list used in FoFCou.
 Keep R1 ints in memory in canonical form, NReq=15944043.
 Requested convergence on RMS density matrix=1.00D-08 within 128 cycles.
 Requested convergence on MAX density matrix=1.00D-06.
 Requested convergence on             energy=1.00D-06.
 No special actions if energy rises.
 Integral accuracy reduced to 1.0D-05 until final iterations.
 Initial convergence to 1.0D-05 achieved.  Increase integral accuracy.
 SCF Done:  E(RM062X) =  -197.596178993     A.U. after   12 cycles
            NFock= 12  Conv=0.30D-08     -V/T= 2.0044

 **********************************************************************

            Population analysis using the SCF density.

 **********************************************************************

 Orbital symmetries:
       Occupied  (A) (A) (A) (A) (A) (A) (A) (A) (A) (A) (A) (A)
                 (A) (A) (A) (A) (A) (A) (A) (A) (A)
       Virtual   (A) (A) (A) (A) (A) (A) (A) (A) (A) (A) (A) (A)
                 (A) (A) (A) (A) (A) (A) (A) (A) (A) (A) (A) (A)
                 (A) (A) (A) (A) (A) (A) (A) (A) (A) (A) (A) (A)
                 (A) (A) (A) (A) (A) (A) (A) (A) (A) (A) (A) (A)
                 (A) (A) (A) (A) (A) (A) (A) (A) (A) (A) (A) (A)
                 (A) (A) (A) (A) (A) (A) (A) (A) (A) (A) (A) (A)
                 (A) (A) (A) (A) (A) (A)
 The electronic state is 1-A.
 Alpha  occ. eigenvalues --  -10.52286 -10.52044 -10.51963 -10.50796 -10.50314
 Alpha  occ. eigenvalues --   -0.91056  -0.83521  -0.78569  -0.68959  -0.66030
 Alpha  occ. eigenvalues --   -0.56052  -0.52312  -0.50698  -0.47494  -0.45501
 Alpha  occ. eigenvalues --   -0.44396  -0.40726  -0.40149  -0.38981  -0.36755
 Alpha  occ. eigenvalues --   -0.34428
 Alpha virt. eigenvalues --    0.14288   0.17903   0.18799   0.19214   0.19413
 Alpha virt. eigenvalues --    0.20680   0.23267   0.24569   0.25266   0.26079
 Alpha virt. eigenvalues --    0.26704   0.28346   0.29566   0.30836   0.33601
 Alpha virt. eigenvalues --    0.35272   0.54874   0.57468   0.58765   0.59897
 Alpha virt. eigenvalues --    0.60366   0.65505   0.69171   0.70526   0.72856
 Alpha virt. eigenvalues --    0.75472   0.77285   0.79769   0.86940   0.92423
 Alpha virt. eigenvalues --    0.96678   0.97379   0.98426   0.99625   1.00392
 Alpha virt. eigenvalues --    1.02857   1.03827   1.05684   1.08206   1.09039
 Alpha virt. eigenvalues --    1.09497   1.10904   1.14768   1.17316   1.27081
 Alpha virt. eigenvalues --    1.45741   1.52313   1.57034   1.62162   1.66011
 Alpha virt. eigenvalues --    1.75626   1.79181   1.87245   1.95071   1.95992
 Alpha virt. eigenvalues --    1.98512   2.04989   2.10910   2.12840   2.15512
 Alpha virt. eigenvalues --    2.22611   2.30033   2.33827   2.39429   2.43641
 Alpha virt. eigenvalues --    2.46730   2.49354   2.52575   2.55846   2.63110
 Alpha virt. eigenvalues --    2.63395   2.70817   2.77830   4.18557   4.29908
 Alpha virt. eigenvalues --    4.38076   4.54371   4.57935
          Condensed to atoms (all electrons):
               1          2          3          4          5          6
     1  C    5.182292   0.347276  -0.045809  -0.002999  -0.040494   0.388897
     2  C    0.347276   5.033397   0.377564  -0.052301   0.001329  -0.033439
     3  C   -0.045809   0.377564   5.043871   0.381730  -0.058598   0.004557
     4  C   -0.002999  -0.052301   0.381730   5.007564   0.371840   0.000351
     5  C   -0.040494   0.001329  -0.058598   0.371840   5.160783  -0.001673
     6  H    0.388897  -0.033439   0.004557   0.000351  -0.001673   0.544882
     7  H    0.381125  -0.030766   0.000410   0.000012   0.001936  -0.025852
     8  H    0.416841  -0.051350  -0.009095  -0.005117  -0.029227  -0.038216
     9  H    0.001957  -0.000279   0.005650  -0.031414   0.377599  -0.000055
    10  H   -0.043455   0.396710  -0.042117  -0.008338  -0.000241  -0.008464
    11  H   -0.037121   0.396217  -0.035498   0.005069  -0.000283   0.001953
    12  H    0.005871  -0.036820   0.389319  -0.036924   0.005664  -0.000207
    13  H   -0.008165  -0.042876   0.388919  -0.041437  -0.008464   0.000169
    14  H   -0.000894  -0.007687  -0.042223   0.392662  -0.040537   0.000065
    15  H   -0.000371   0.005669  -0.038061   0.394121  -0.037622   0.000006
    16  H   -0.002774  -0.000104  -0.005586  -0.036454   0.391372   0.000149
    17  H   -0.036860   0.002715  -0.004670  -0.036253   0.409856   0.004918
               7          8          9         10         11         12
     1  C    0.381125   0.416841   0.001957  -0.043455  -0.037121   0.005871
     2  C   -0.030766  -0.051350  -0.000279   0.396710   0.396217  -0.036820
     3  C    0.000410  -0.009095   0.005650  -0.042117  -0.035498   0.389319
     4  C    0.000012  -0.005117  -0.031414  -0.008338   0.005069  -0.036924
     5  C    0.001936  -0.029227   0.377599  -0.000241  -0.000283   0.005664
     6  H   -0.025852  -0.038216  -0.000055  -0.008464   0.001953  -0.000207
     7  H    0.540369  -0.024119  -0.000045   0.004511  -0.010289  -0.000138
     8  H   -0.024119   0.574245   0.001701   0.003096   0.004303   0.000342
     9  H   -0.000045   0.001701   0.546701  -0.000033   0.000009  -0.000148
    10  H    0.004511   0.003096  -0.000033   0.564846  -0.032519  -0.001541
    11  H   -0.010289   0.004303   0.000009  -0.032519   0.552288  -0.004102
    12  H   -0.000138   0.000342  -0.000148  -0.001541  -0.004102   0.564455
    13  H    0.001444   0.002771   0.000063   0.005755  -0.001550  -0.033262
    14  H   -0.000012   0.001093  -0.002875   0.006683   0.000139  -0.001434
    15  H    0.000011  -0.000342  -0.004199   0.000152  -0.000219  -0.004910
    16  H   -0.000120   0.005902  -0.027841   0.000068  -0.000016   0.000035
    17  H    0.001447  -0.020160  -0.024869  -0.000013  -0.000122  -0.000244
              13         14         15         16         17
     1  C   -0.008165  -0.000894  -0.000371  -0.002774  -0.036860
     2  C   -0.042876  -0.007687   0.005669  -0.000104   0.002715
     3  C    0.388919  -0.042223  -0.038061  -0.005586  -0.004670
     4  C   -0.041437   0.392662   0.394121  -0.036454  -0.036253
     5  C   -0.008464  -0.040537  -0.037622   0.391372   0.409856
     6  H    0.000169   0.000065   0.000006   0.000149   0.004918
     7  H    0.001444  -0.000012   0.000011  -0.000120   0.001447
     8  H    0.002771   0.001093  -0.000342   0.005902  -0.020160
     9  H    0.000063  -0.002875  -0.004199  -0.027841  -0.024869
    10  H    0.005755   0.006683   0.000152   0.000068  -0.000013
    11  H   -0.001550   0.000139  -0.000219  -0.000016  -0.000122
    12  H   -0.033262  -0.001434  -0.004910   0.000035  -0.000244
    13  H    0.576055   0.005877  -0.001634   0.005810  -0.000494
    14  H    0.005877   0.567424  -0.033878   0.005511  -0.005424
    15  H   -0.001634  -0.033878   0.561669  -0.004798   0.005597
    16  H    0.005810   0.005511  -0.004798   0.549340  -0.041881
    17  H   -0.000494  -0.005424   0.005597  -0.041881   0.565031
 Mulliken charges:
               1
     1  C   -0.505317
     2  C   -0.305256
     3  C   -0.310360
     4  C   -0.302113
     5  C   -0.503238
     6  H    0.161959
     7  H    0.160078
     8  H    0.167330
     9  H    0.158078
    10  H    0.154900
    11  H    0.161742
    12  H    0.154044
    13  H    0.151019
    14  H    0.155512
    15  H    0.158809
    16  H    0.161388
    17  H    0.181425
 Sum of Mulliken charges =   0.00000
 Mulliken charges with hydrogens summed into heavy atoms:
               1
     1  C   -0.015950
     2  C    0.011387
     3  C   -0.005298
     4  C    0.012208
     5  C   -0.002347
 Electronic spatial extent (au):  <R**2>=            509.2479
 Charge=             -0.0000 electrons
 Dipole moment (field-independent basis, Debye):
    X=             -0.0430    Y=             -0.0827    Z=              0.0331  Tot=              0.0988
 Quadrupole moment (field-independent basis, Debye-Ang):
   XX=            -34.9654   YY=            -35.1541   ZZ=            -34.0586
   XY=             -0.0342   XZ=              0.0480   YZ=              0.1456
 Traceless Quadrupole moment (field-independent basis, Debye-Ang):
   XX=             -0.2394   YY=             -0.4281   ZZ=              0.6674
   XY=             -0.0342   XZ=              0.0480   YZ=              0.1456
 Octapole moment (field-independent basis, Debye-Ang**2):
  XXX=             -0.1602  YYY=             -1.9982  ZZZ=              0.4417  XYY=             -0.0729
  XXY=             -1.2168  XXZ=             -0.7660  XZZ=              0.1527  YZZ=              0.4723
  YYZ=              0.5104  XYZ=              0.2739
 Hexadecapole moment (field-independent basis, Debye-Ang**3):
 XXXX=           -377.1691 YYYY=           -232.6678 ZZZZ=            -80.8337 XXXY=             -1.1316
 XXXZ=             -3.1959 YYYX=              0.0928 YYYZ=              1.1591 ZZZX=              0.9700
 ZZZY=             -0.7452 XXYY=           -103.1366 XXZZ=            -75.9206 YYZZ=            -53.0674
 XXYZ=              1.9661 YYXZ=              0.4522 ZZXY=              0.3971
 N-N= 1.982974502929D+02 E-N=-8.532760433401D+02  KE= 1.967294128684D+02
 Calling FoFJK, ICntrl=      2127 FMM=F ISym2X=0 I1Cent= 0 IOpClX= 0 NMat=1 NMatS=1 NMatT=0.
 ***** Axes restored to original set *****
 -------------------------------------------------------------------
 Center     Atomic                   Forces (Hartrees/Bohr)
 Number     Number              X              Y              Z
 -------------------------------------------------------------------
      1        6           0.031520809    0.008060974   -0.014448400
      2        6          -0.009778806   -0.017076780    0.044938627
      3        6          -0.036255746    0.024608172   -0.025019428
      4        6          -0.002841231   -0.051544811    0.000019618
      5        6           0.017950853    0.041096161   -0.003027574
      6        1          -0.028172917    0.002920052   -0.019138526
      7        1           0.006820308   -0.032118982   -0.007233636
      8        1           0.000558454   -0.025059928    0.002168813
      9        1          -0.021980111    0.018384784    0.018138468
     10        1          -0.006879447    0.028495839   -0.017563639
     11        1           0.023169974   -0.012310112   -0.021504258
     12        1           0.030663441    0.014091921   -0.003044370
     13        1           0.008335110   -0.027708311    0.019579460
     14        1          -0.008127869    0.026400466   -0.020503940
     15        1           0.013320912    0.016410708    0.025585634
     16        1           0.007467477   -0.025270163    0.021129855
     17        1          -0.025771214    0.010620010   -0.000076705
 -------------------------------------------------------------------
 Cartesian Forces:  Max     0.051544811 RMS     0.021637533

 GradGradGradGradGradGradGradGradGradGradGradGradGradGradGradGradGradGrad
 Berny optimization.
 FormGI is forming the generalized inverse of G from B-inverse, IUseBI=4.
 Internal  Forces:  Max     0.137230471 RMS     0.033217418
 Search for a local minimum.
 Step number   1 out of a maximum of  102
 All quantities printed in internal units (Hartrees-Bohrs-Radians)
 Mixed Optimization -- RFO/linear search
 Second derivative matrix not updated -- first step.
 ITU=  0
     Eigenvalues ---    0.00233   0.00237   0.00240   0.00243   0.03839
     Eigenvalues ---    0.03840   0.03845   0.04896   0.04897   0.04898
     Eigenvalues ---    0.05706   0.05725   0.05725   0.05730   0.07647
     Eigenvalues ---    0.07657   0.07658   0.11695   0.11702   0.11703
     Eigenvalues ---    0.16000   0.16000   0.16000   0.16000   0.16000
     Eigenvalues ---    0.16000   0.21947   0.21948   0.21949   0.28491
     Eigenvalues ---    0.28519   0.28541   0.28557   0.39764   0.39787
     Eigenvalues ---    0.39787   0.39804   0.39841   0.39863   0.39880
     Eigenvalues ---    0.39898   0.39900   0.39948   0.39958   0.39990
 RFO step:  Lambda=-2.18273805D-01 EMin= 2.32654356D-03
 Linear search not attempted -- first point.
 Maximum step size (   0.300) exceeded in Quadratic search.
    -- Step size scaled by   0.476
 Iteration  1 RMS(Cart)=  0.23432815 RMS(Int)=  0.01064730
 Iteration  2 RMS(Cart)=  0.02841777 RMS(Int)=  0.00095588
 Iteration  3 RMS(Cart)=  0.00048984 RMS(Int)=  0.00093924
 Iteration  4 RMS(Cart)=  0.00000059 RMS(Int)=  0.00093924
 Variable       Old X    -DE/DX   Delta X   Delta X   Delta X     New X
                                 (Linear)    (Quad)   (Total)
    R1        2.90936   0.01557   0.00000   0.01470   0.01470   2.92406
    R2        1.98392   0.03365   0.00000   0.02593   0.02593   2.00984
    R3        1.98389   0.03341   0.00000   0.02574   0.02574   2.00964
    R4        1.98520   0.00013   0.00000   0.00010   0.00010   1.98531
    R5        2.91077   0.03538   0.00000   0.03344   0.03344   2.94421
    R6        1.98311   0.03388   0.00000   0.02608   0.02608   2.00919
    R7        1.98267   0.03363   0.00000   0.02588   0.02588   2.00855
    R8        2.90970   0.05396   0.00000   0.05095   0.05095   2.96065
    R9        1.98543   0.03377   0.00000   0.02607   0.02607   2.01150
   R10        1.98417   0.03478   0.00000   0.02681   0.02681   2.01098
   R11        2.91017   0.00578   0.00000   0.00546   0.00546   2.91563
   R12        1.98324   0.03425   0.00000   0.02637   0.02637   2.00961
   R13        1.98576   0.03306   0.00000   0.02553   0.02553   2.01129
   R14        1.98544   0.03372   0.00000   0.02603   0.02603   2.01147
   R15        1.98470   0.03365   0.00000   0.02595   0.02595   2.01065
   R16        1.98440   0.00716   0.00000   0.00552   0.00552   1.98992
    A1        1.90992   0.00627   0.00000   0.00876   0.00859   1.91851
    A2        1.90988  -0.00341   0.00000  -0.00585  -0.00580   1.90408
    A3        1.91093   0.02281   0.00000   0.02936   0.02921   1.94014
    A4        1.91129  -0.00506   0.00000  -0.00773  -0.00771   1.90358
    A5        1.91065  -0.00618   0.00000  -0.00464  -0.00498   1.90567
    A6        1.91114  -0.01440   0.00000  -0.01987  -0.01980   1.89134
    A7        1.91085   0.09415   0.00000   0.10480   0.10483   2.01568
    A8        1.91127  -0.00253   0.00000   0.01021   0.00989   1.92116
    A9        1.91042  -0.04950   0.00000  -0.06324  -0.06259   1.84783
   A10        1.91005  -0.03526   0.00000  -0.03646  -0.03857   1.87148
   A11        1.91025  -0.01962   0.00000  -0.02110  -0.01961   1.89064
   A12        1.91095   0.01277   0.00000   0.00580   0.00496   1.91591
   A13        1.90988   0.12775   0.00000   0.14199   0.14196   2.05184
   A14        1.91077  -0.03984   0.00000  -0.04822  -0.04556   1.86521
   A15        1.91149  -0.03326   0.00000  -0.02773  -0.03118   1.88031
   A16        1.90999  -0.05887   0.00000  -0.07517  -0.07321   1.83679
   A17        1.91062  -0.01424   0.00000  -0.00068  -0.00275   1.90787
   A18        1.91105   0.01849   0.00000   0.00986   0.00811   1.91916
   A19        1.91079   0.13723   0.00000   0.15247   0.15302   2.06381
   A20        1.91246  -0.03311   0.00000  -0.02956  -0.03076   1.88169
   A21        1.90963  -0.04537   0.00000  -0.05192  -0.05081   1.85882
   A22        1.91131  -0.03464   0.00000  -0.03171  -0.03303   1.87828
   A23        1.90947  -0.04429   0.00000  -0.05040  -0.04925   1.86022
   A24        1.91014   0.02010   0.00000   0.01101   0.00860   1.91874
   A25        1.90984  -0.00317   0.00000  -0.00562  -0.00559   1.90425
   A26        1.91186   0.00298   0.00000   0.00483   0.00471   1.91657
   A27        1.91140   0.01858   0.00000   0.02393   0.02384   1.93524
   A28        1.90808  -0.00288   0.00000  -0.00474  -0.00474   1.90334
   A29        1.91042  -0.01345   0.00000  -0.01908  -0.01902   1.89140
   A30        1.91220  -0.00212   0.00000   0.00060   0.00038   1.91258
    D1        2.40397   0.00392   0.00000   0.00815   0.00943   2.41340
    D2        0.30976  -0.00906   0.00000  -0.01769  -0.01819   0.29157
    D3       -1.78528   0.00721   0.00000   0.00773   0.00724  -1.77804
    D4       -1.78492  -0.00053   0.00000   0.00047   0.00166  -1.78325
    D5        2.40406  -0.01351   0.00000  -0.02538  -0.02596   2.37810
    D6        0.30901   0.00276   0.00000   0.00005  -0.00052   0.30849
    D7        0.30982  -0.00629   0.00000  -0.00947  -0.00840   0.30142
    D8       -1.78439  -0.01927   0.00000  -0.03532  -0.03602  -1.82041
    D9        2.40375  -0.00300   0.00000  -0.00990  -0.01059   2.39316
   D10       -1.25678  -0.05264   0.00000  -0.09825  -0.09796  -1.35474
   D11        2.93317  -0.03435   0.00000  -0.06359  -0.06268   2.87049
   D12        0.83767  -0.01213   0.00000  -0.02902  -0.02893   0.80874
   D13        0.83818  -0.01971   0.00000  -0.04393  -0.04459   0.79359
   D14       -1.25506  -0.00142   0.00000  -0.00927  -0.00931  -1.26436
   D15        2.93262   0.02081   0.00000   0.02530   0.02445   2.95707
   D16        2.93237  -0.03762   0.00000  -0.07202  -0.07208   2.86030
   D17        0.83914  -0.01933   0.00000  -0.03735  -0.03680   0.80234
   D18       -1.25637   0.00290   0.00000  -0.00279  -0.00304  -1.25941
   D19        1.25689   0.02160   0.00000   0.04278   0.04467   1.30156
   D20       -0.83955  -0.00011   0.00000   0.00590   0.00757  -0.83198
   D21       -2.93385   0.02339   0.00000   0.04239   0.04323  -2.89061
   D22       -2.93259   0.01492   0.00000   0.02457   0.02408  -2.90851
   D23        1.25416  -0.00679   0.00000  -0.01231  -0.01302   1.24113
   D24       -0.84014   0.01671   0.00000   0.02418   0.02264  -0.81749
   D25       -0.83809  -0.00718   0.00000  -0.00978  -0.00991  -0.84800
   D26       -2.93453  -0.02889   0.00000  -0.04666  -0.04702  -2.98154
   D27        1.25436  -0.00539   0.00000  -0.01017  -0.01135   1.24302
   D28       -3.14130  -0.01162   0.00000  -0.02327  -0.02358   3.11830
   D29        1.05035  -0.00797   0.00000  -0.01697  -0.01724   1.03312
   D30       -1.04718  -0.01867   0.00000  -0.03544  -0.03585  -1.08303
   D31       -1.04416   0.01092   0.00000   0.01480   0.01454  -1.02962
   D32       -3.13569   0.01457   0.00000   0.02110   0.02089  -3.11480
   D33        1.04995   0.00387   0.00000   0.00262   0.00228   1.05223
   D34        1.04933  -0.01273   0.00000  -0.02193  -0.02132   1.02801
   D35       -1.04219  -0.00908   0.00000  -0.01563  -0.01497  -1.05717
   D36       -3.13973  -0.01978   0.00000  -0.03411  -0.03358   3.10987
         Item               Value     Threshold  Converged?
 Maximum Force            0.137230     0.000450     NO 
 RMS     Force            0.033217     0.000300     NO 
 Maximum Displacement     0.692747     0.001800     NO 
 RMS     Displacement     0.257152     0.001200     NO 
 Predicted change in Energy=-9.299629D-02
 GradGradGradGradGradGradGradGradGradGradGradGradGradGradGradGradGradGrad

                          Input orientation:                          
 ---------------------------------------------------------------------
 Center     Atomic      Atomic             Coordinates (Angstroms)
 Number     Number       Type             X           Y           Z
 ---------------------------------------------------------------------
      1          6           0        0.093719   -0.198000   -0.265123
      2          6           0        1.168558    0.915017   -0.279039
      3          6           0        1.667301    1.383031    1.120822
      4          6           0        0.740290    2.348491    1.935144
      5          6           0       -0.521512    1.760647    2.600572
      6          1           0       -0.653984    0.011137   -0.992012
      7          1           0        0.553366   -1.128451   -0.497332
      8          1           0       -0.356908   -0.278274    0.680502
      9          1           0       -1.027685    2.532617    3.130522
     10          1           0        0.798077    1.773817   -0.784641
     11          1           0        1.996099    0.513348   -0.811532
     12          1           0        2.567773    1.927862    0.961626
     13          1           0        1.866539    0.513637    1.701260
     14          1           0        0.426695    3.126563    1.281564
     15          1           0        1.337290    2.751360    2.718776
     16          1           0       -0.244662    0.993875    3.284306
     17          1           0       -1.178953    1.368323    1.877586
 ---------------------------------------------------------------------
                    Distance matrix (angstroms):
                    1          2          3          4          5
     1  C    0.000000
     2  C    1.547346   0.000000
     3  C    2.626151   1.558009   0.000000
     4  C    3.426929   2.672239   1.566710   0.000000
     5  C    3.525197   3.444355   2.668924   1.542886   0.000000
     6  H    1.063563   2.155688   3.425570   3.996932   3.998124
     7  H    1.063454   2.145198   3.188544   4.247470   4.370270
     8  H    1.050578   2.161413   2.655417   3.110926   2.805523
     9  H    4.499358   4.366374   3.552942   2.142094   1.064423
    10  H    2.157332   1.063215   2.130506   2.780435   3.633339
    11  H    2.103243   1.062879   2.144399   3.533982   4.420019
    12  H    3.484989   2.126713   1.064441   2.112903   3.501112
    13  H    2.741529   2.137725   1.064166   2.165600   2.840173
    14  H    3.681825   2.806560   2.145891   1.063441   2.122406
    15  H    4.375940   3.519591   2.129481   1.064327   2.109651
    16  H    3.759457   3.834167   2.913367   2.150663   1.063992
    17  H    2.943512   3.219833   2.945178   2.155814   1.053022
                    6          7          8          9         10
     6  H    0.000000
     7  H    1.732358   0.000000
     8  H    1.723171   1.714262   0.000000
     9  H    4.846938   5.391147   3.788621   0.000000
    10  H    2.293147   2.926702   2.773393   4.386079   0.000000
    11  H    2.703281   2.208099   2.896458   5.362882   1.739184
    12  H    4.227323   3.940487   3.674211   4.242306   2.490984
    13  H    3.722803   3.042151   2.571534   3.807309   2.984857
    14  H    4.005359   4.613639   3.545169   2.426240   2.497409
    15  H    5.024335   5.100080   4.025363   2.410496   3.676993
    16  H    4.406838   4.409297   2.900131   1.733350   4.272230
    17  H    3.217475   3.856818   2.195462   1.717065   3.340737
                   11         12         13         14         15
    11  H    0.000000
    12  H    2.339177   0.000000
    13  H    2.516130   1.743222   0.000000
    14  H    3.697698   2.474562   3.012753   0.000000
    15  H    4.231525   2.297785   2.514527   1.742280   0.000000
    16  H    4.693379   3.765231   2.682132   3.001676   2.431285
    17  H    4.247740   3.897438   3.168059   2.454538   2.991968
                   16         17
    16  H    0.000000
    17  H    1.729733   0.000000
 Stoichiometry    C5H12
 Framework group  C1[X(C5H12)]
 Deg. of freedom    45
 Full point group                 C1      NOp   1
 Largest Abelian subgroup         C1      NOp   1
 Largest concise Abelian subgroup C1      NOp   1
                         Standard orientation:                         
 ---------------------------------------------------------------------
 Center     Atomic      Atomic             Coordinates (Angstroms)
 Number     Number       Type             X           Y           Z
 ---------------------------------------------------------------------
      1          6           0        1.749803    0.937243   -0.068835
      2          6           0        1.339122   -0.512862    0.281618
      3          6           0        0.024879   -1.017440   -0.385883
      4          6           0       -1.332495   -0.531026    0.226913
      5          6           0       -1.775251    0.922541   -0.040684
      6          1           0        2.098912    1.435864    0.803327
      7          1           0        2.530126    0.912969   -0.790944
      8          1           0        0.941549    1.473224   -0.472774
      9          1           0       -2.720371    1.089220    0.419712
     10          1           0        1.217129   -0.613633    1.332993
     11          1           0        2.139564   -1.129467   -0.048234
     12          1           0        0.013960   -2.076977   -0.284416
     13          1           0        0.061518   -0.751491   -1.415630
     14          1           0       -1.279259   -0.662426    1.280861
     15          1           0       -2.089829   -1.158916   -0.179282
     16          1           0       -1.865772    1.084877   -1.088315
     17          1           0       -1.083874    1.606015    0.363933
 ---------------------------------------------------------------------
 Rotational constants (GHZ):           7.2006842           3.0534007           2.3877907
 Standard basis: 6-31G(d) (6D, 7F)
 There are    99 symmetry adapted cartesian basis functions of A   symmetry.
 There are    99 symmetry adapted basis functions of A   symmetry.
    99 basis functions,   188 primitive gaussians,    99 cartesian basis functions
    21 alpha electrons       21 beta electrons
       nuclear repulsion energy       189.6766494662 Hartrees.
 NAtoms=   17 NActive=   17 NUniq=   17 SFac= 1.00D+00 NAtFMM=   60 NAOKFM=F Big=F
 Integral buffers will be    131072 words long.
 Raffenetti 2 integral format.
 Two-electron integral symmetry is turned on.
 Nuclear repulsion after empirical dispersion term =      189.6763305625 Hartrees.
 One-electron integrals computed using PRISM.
 NBasis=    99 RedAO= T EigKep=  4.99D-03  NBF=    99
 NBsUse=    99 1.00D-06 EigRej= -1.00D+00 NBFU=    99
 Initial guess from the checkpoint file:  "pentane_9.chk"
 B after Tr=    -0.000000   -0.000000    0.000000
         Rot=    0.999972   -0.004597    0.003976   -0.004446 Ang=  -0.86 deg.
 ExpMin= 1.61D-01 ExpMax= 3.05D+03 ExpMxC= 4.57D+02 IAcc=2 IRadAn=         4 AccDes= 0.00D+00
 Harris functional with IExCor= 1009 and IRadAn=       4 diagonalized for initial guess.
 HarFok:  IExCor= 1009 AccDes= 0.00D+00 IRadAn=         4 IDoV= 1 UseB2=F ITyADJ=14
 ICtDFT=  3500011 ScaDFX=  1.000000  1.000000  1.000000  1.000000
 FoFCou: FMM=F IPFlag=           0 FMFlag=      100000 FMFlg1=           0
         NFxFlg=           0 DoJE=T BraDBF=F KetDBF=T FulRan=T
         wScrn=  0.000000 ICntrl=       500 IOpCl=  0 I1Cent=   200000004 NGrid=           0
         NMat0=    1 NMatS0=      1 NMatT0=    0 NMatD0=    1 NMtDS0=    0 NMtDT0=    0
 Petite list used in FoFCou.
 Keep R1 ints in memory in canonical form, NReq=15944043.
 Requested convergence on RMS density matrix=1.00D-08 within 128 cycles.
 Requested convergence on MAX density matrix=1.00D-06.
 Requested convergence on             energy=1.00D-06.
 No special actions if energy rises.
 Integral accuracy reduced to 1.0D-05 until final iterations.
 Initial convergence to 1.0D-05 achieved.  Increase integral accuracy.
 SCF Done:  E(RM062X) =  -197.629604339     A.U. after   13 cycles
            NFock= 13  Conv=0.34D-08     -V/T= 2.0070
 Calling FoFJK, ICntrl=      2127 FMM=F ISym2X=0 I1Cent= 0 IOpClX= 0 NMat=1 NMatS=1 NMatT=0.
 ***** Axes restored to original set *****
 -------------------------------------------------------------------
 Center     Atomic                   Forces (Hartrees/Bohr)
 Number     Number              X              Y              Z
 -------------------------------------------------------------------
      1        6           0.023154137    0.022693844   -0.006396094
      2        6          -0.013040509   -0.007840068    0.035105829
      3        6          -0.036425921    0.008220770   -0.011716028
      4        6          -0.005700144   -0.036674902   -0.008592926
      5        6           0.031191209    0.010550344   -0.011860734
      6        1          -0.016334204    0.000672951   -0.014021424
      7        1           0.005929065   -0.020430821   -0.004149833
      8        1          -0.015693136   -0.003431417    0.027621921
      9        1          -0.010601298    0.014177069    0.011746426
     10        1          -0.005687739    0.017784934   -0.014645206
     11        1           0.019841525   -0.000611288   -0.013197869
     12        1           0.021547708    0.007318527   -0.001077203
     13        1           0.008933879   -0.017421160    0.014975307
     14        1          -0.003026124    0.020920397   -0.012505326
     15        1           0.012966403    0.013206719    0.013338059
     16        1           0.003087195   -0.016981857    0.014313758
     17        1          -0.020142047   -0.012154043   -0.018938657
 -------------------------------------------------------------------
 Cartesian Forces:  Max     0.036674902 RMS     0.016548488

 GradGradGradGradGradGradGradGradGradGradGradGradGradGradGradGradGradGrad
 Berny optimization.
 Using GEDIIS/GDIIS optimizer.
 FormGI is forming the generalized inverse of G from B-inverse, IUseBI=4.
 Internal  Forces:  Max     0.031856992 RMS     0.009941003
 Search for a local minimum.
 Step number   2 out of a maximum of  102
 All quantities printed in internal units (Hartrees-Bohrs-Radians)
 Mixed Optimization -- RFO/linear search
 Update second derivatives using D2CorX and points    1    2
 DE= -3.34D-02 DEPred=-9.30D-02 R= 3.59D-01
 Trust test= 3.59D-01 RLast= 3.57D-01 DXMaxT set to 3.00D-01
 ITU=  0  0
 Use linear search instead of GDIIS.
     Eigenvalues ---    0.00236   0.00240   0.00242   0.00257   0.03070
     Eigenvalues ---    0.03226   0.03575   0.04746   0.04774   0.04937
     Eigenvalues ---    0.05518   0.05613   0.05719   0.05732   0.08606
     Eigenvalues ---    0.08941   0.09056   0.12530   0.12726   0.12756
     Eigenvalues ---    0.15979   0.16000   0.16000   0.16000   0.16000
     Eigenvalues ---    0.16071   0.22112   0.22166   0.27903   0.28506
     Eigenvalues ---    0.28518   0.28540   0.35706   0.39234   0.39770
     Eigenvalues ---    0.39787   0.39814   0.39841   0.39855   0.39887
     Eigenvalues ---    0.39899   0.39931   0.39954   0.39982   0.95202
 RFO step:  Lambda=-1.96473234D-02 EMin= 2.36340553D-03
 Quartic linear search produced a step of -0.06295.
 Iteration  1 RMS(Cart)=  0.03818939 RMS(Int)=  0.00055474
 Iteration  2 RMS(Cart)=  0.00058652 RMS(Int)=  0.00009597
 Iteration  3 RMS(Cart)=  0.00000035 RMS(Int)=  0.00009597
 Variable       Old X    -DE/DX   Delta X   Delta X   Delta X     New X
                                 (Linear)    (Quad)   (Total)
    R1        2.92406   0.00243  -0.00093   0.01282   0.01189   2.93595
    R2        2.00984   0.02120  -0.00163   0.05721   0.05558   2.06542
    R3        2.00964   0.02134  -0.00162   0.05746   0.05584   2.06548
    R4        1.98531   0.03186  -0.00001   0.07127   0.07126   2.05657
    R5        2.94421  -0.01134  -0.00210  -0.02255  -0.02466   2.91955
    R6        2.00919   0.02331  -0.00164   0.06191   0.06027   2.06946
    R7        2.00855   0.02229  -0.00163   0.05952   0.05790   2.06645
    R8        2.96065  -0.01538  -0.00321  -0.02847  -0.03168   2.92897
    R9        2.01150   0.02214  -0.00164   0.05948   0.05784   2.06934
   R10        2.01098   0.02407  -0.00169   0.06399   0.06230   2.07328
   R11        2.91563  -0.00326  -0.00034  -0.00799  -0.00833   2.90730
   R12        2.00961   0.02389  -0.00166   0.06331   0.06165   2.07126
   R13        2.01129   0.02209  -0.00161   0.05921   0.05760   2.06889
   R14        2.01147   0.02117  -0.00164   0.05731   0.05568   2.06714
   R15        2.01065   0.02224  -0.00163   0.05961   0.05797   2.06863
   R16        1.98992   0.03011  -0.00035   0.06933   0.06898   2.05891
    A1        1.91851   0.00393  -0.00054   0.02236   0.02162   1.94013
    A2        1.90408   0.00418   0.00037   0.02148   0.02163   1.92570
    A3        1.94014   0.00148  -0.00184   0.01624   0.01426   1.95440
    A4        1.90358  -0.00387   0.00049  -0.02098  -0.02076   1.88282
    A5        1.90567  -0.00313   0.00031  -0.02104  -0.02084   1.88483
    A6        1.89134  -0.00279   0.00125  -0.01934  -0.01825   1.87308
    A7        2.01568  -0.00743  -0.00660   0.01212   0.00547   2.02115
    A8        1.92116   0.00109  -0.00062   0.00164   0.00105   1.92221
    A9        1.84783   0.00689   0.00394   0.02805   0.03201   1.87984
   A10        1.87148   0.00433   0.00243   0.00218   0.00467   1.87615
   A11        1.89064  -0.00112   0.00123  -0.01709  -0.01618   1.87446
   A12        1.91591  -0.00401  -0.00031  -0.02996  -0.03031   1.88560
   A13        2.05184  -0.01280  -0.00894   0.00179  -0.00715   2.04469
   A14        1.86521   0.00394   0.00287   0.01082   0.01351   1.87872
   A15        1.88031   0.00544   0.00196   0.00541   0.00758   1.88789
   A16        1.83679   0.00475   0.00461   0.00569   0.01017   1.84696
   A17        1.90787   0.00299   0.00017  -0.00302  -0.00270   1.90517
   A18        1.91916  -0.00444  -0.00051  -0.02295  -0.02334   1.89581
   A19        2.06381  -0.01235  -0.00963   0.00814  -0.00154   2.06227
   A20        1.88169   0.00360   0.00194  -0.00336  -0.00137   1.88032
   A21        1.85882   0.00284   0.00320  -0.00575  -0.00269   1.85613
   A22        1.87828   0.00471   0.00208   0.00696   0.00913   1.88741
   A23        1.86022   0.00558   0.00310   0.01633   0.01935   1.87957
   A24        1.91874  -0.00454  -0.00054  -0.02555  -0.02601   1.89273
   A25        1.90425   0.00114   0.00035   0.00543   0.00572   1.90997
   A26        1.91657   0.00292  -0.00030   0.01540   0.01501   1.93158
   A27        1.93524   0.00240  -0.00150   0.02013   0.01852   1.95376
   A28        1.90334  -0.00211   0.00030  -0.01251  -0.01225   1.89109
   A29        1.89140  -0.00154   0.00120  -0.01160  -0.01048   1.88092
   A30        1.91258  -0.00293  -0.00002  -0.01762  -0.01777   1.89480
    D1        2.41340   0.00096  -0.00059   0.02295   0.02217   2.43558
    D2        0.29157  -0.00026   0.00115   0.01003   0.01116   0.30273
    D3       -1.77804  -0.00001  -0.00046   0.02869   0.02832  -1.74972
    D4       -1.78325   0.00116  -0.00010   0.02395   0.02372  -1.75953
    D5        2.37810  -0.00006   0.00163   0.01103   0.01271   2.39081
    D6        0.30849   0.00019   0.00003   0.02969   0.02987   0.33836
    D7        0.30142   0.00129   0.00053   0.02378   0.02418   0.32560
    D8       -1.82041   0.00007   0.00227   0.01086   0.01316  -1.80725
    D9        2.39316   0.00032   0.00067   0.02952   0.03032   2.42349
   D10       -1.35474   0.00165   0.00617   0.01975   0.02585  -1.32888
   D11        2.87049   0.00052   0.00395   0.00319   0.00702   2.87752
   D12        0.80874   0.00084   0.00182   0.02156   0.02332   0.83206
   D13        0.79359   0.00136   0.00281   0.03182   0.03464   0.82823
   D14       -1.26436   0.00022   0.00059   0.01526   0.01581  -1.24856
   D15        2.95707   0.00054  -0.00154   0.03363   0.03210   2.98917
   D16        2.86030  -0.00162   0.00454  -0.01144  -0.00679   2.85350
   D17        0.80234  -0.00276   0.00232  -0.02800  -0.02563   0.77672
   D18       -1.25941  -0.00244   0.00019  -0.00962  -0.00933  -1.26874
   D19        1.30156  -0.00110  -0.00281  -0.03243  -0.03535   1.26621
   D20       -0.83198  -0.00157  -0.00048  -0.04481  -0.04537  -0.87735
   D21       -2.89061   0.00042  -0.00272  -0.01033  -0.01313  -2.90374
   D22       -2.90851  -0.00018  -0.00152  -0.01331  -0.01479  -2.92329
   D23        1.24113  -0.00065   0.00082  -0.02569  -0.02480   1.21633
   D24       -0.81749   0.00134  -0.00143   0.00879   0.00744  -0.81006
   D25       -0.84800  -0.00132   0.00062  -0.03856  -0.03793  -0.88593
   D26       -2.98154  -0.00179   0.00296  -0.05095  -0.04795  -3.02949
   D27        1.24302   0.00020   0.00071  -0.01647  -0.01571   1.22730
   D28        3.11830  -0.00039   0.00148  -0.00763  -0.00612   3.11218
   D29        1.03312  -0.00026   0.00108  -0.00492  -0.00378   1.02934
   D30       -1.08303  -0.00009   0.00226  -0.00620  -0.00392  -1.08696
   D31       -1.02962  -0.00046  -0.00092  -0.00049  -0.00140  -1.03103
   D32       -3.11480  -0.00033  -0.00132   0.00222   0.00094  -3.11386
   D33        1.05223  -0.00016  -0.00014   0.00093   0.00079   1.05303
   D34        1.02801  -0.00048   0.00134  -0.01829  -0.01701   1.01101
   D35       -1.05717  -0.00035   0.00094  -0.01558  -0.01466  -1.07183
   D36        3.10987  -0.00019   0.00211  -0.01686  -0.01481   3.09506
         Item               Value     Threshold  Converged?
 Maximum Force            0.031857     0.000450     NO 
 RMS     Force            0.009941     0.000300     NO 
 Maximum Displacement     0.115974     0.001800     NO 
 RMS     Displacement     0.038335     0.001200     NO 
 Predicted change in Energy=-1.104167D-02
 GradGradGradGradGradGradGradGradGradGradGradGradGradGradGradGradGradGrad

                          Input orientation:                          
 ---------------------------------------------------------------------
 Center     Atomic      Atomic             Coordinates (Angstroms)
 Number     Number       Type             X           Y           Z
 ---------------------------------------------------------------------
      1          6           0        0.079777   -0.184478   -0.238894
      2          6           0        1.167217    0.924874   -0.263500
      3          6           0        1.676820    1.397774    1.116200
      4          6           0        0.750380    2.338547    1.927980
      5          6           0       -0.514202    1.738470    2.566458
      6          1           0       -0.690032    0.000833   -0.992317
      7          1           0        0.526985   -1.159451   -0.448877
      8          1           0       -0.408956   -0.254324    0.730969
      9          1           0       -1.043049    2.515398    3.126181
     10          1           0        0.794847    1.805997   -0.796630
     11          1           0        2.027880    0.534794   -0.813839
     12          1           0        2.603205    1.958543    0.953467
     13          1           0        1.905901    0.510102    1.718913
     14          1           0        0.443322    3.156891    1.266627
     15          1           0        1.363833    2.755530    2.733218
     16          1           0       -0.252074    0.932504    3.259286
     17          1           0       -1.199855    1.342996    1.817759
 ---------------------------------------------------------------------
                    Distance matrix (angstroms):
                    1          2          3          4          5
     1  C    0.000000
     2  C    1.553639   0.000000
     3  C    2.624947   1.544961   0.000000
     4  C    3.392743   2.640986   1.549945   0.000000
     5  C    3.452613   3.390836   2.649509   1.538478   0.000000
     6  H    1.092974   2.198727   3.463997   4.008470   3.964237
     7  H    1.093006   2.188304   3.211073   4.235014   4.309787
     8  H    1.088288   2.205402   2.688549   3.082187   2.711333
     9  H    4.458003   4.347985   3.561852   2.164105   1.093886
    10  H    2.187323   1.095108   2.145563   2.776524   3.609505
    11  H    2.154767   1.093516   2.143136   3.521804   4.397434
    12  H    3.518800   2.147450   1.095049   2.127684   3.516873
    13  H    2.765896   2.155842   1.097133   2.173050   2.843259
    14  H    3.682867   2.801288   2.153750   1.096066   2.149030
    15  H    4.373316   3.517140   2.134527   1.094809   2.142250
    16  H    3.687144   3.797955   2.920603   2.180423   1.094670
    17  H    2.863644   3.179543   2.961493   2.192416   1.089527
                    6          7          8          9         10
     6  H    0.000000
     7  H    1.767121   0.000000
     8  H    1.764603   1.757065   0.000000
     9  H    4.838355   5.361955   3.716245   0.000000
    10  H    2.345587   2.997760   2.833306   4.389710   0.000000
    11  H    2.775610   2.292672   2.991205   5.373747   1.771051
    12  H    4.296989   3.999893   3.744249   4.280881   2.521163
    13  H    3.788007   3.064006   2.630389   3.833787   3.040023
    14  H    4.043269   4.645511   3.556642   2.465512   2.491087
    15  H    5.068168   5.114012   4.026289   2.450543   3.699349
    16  H    4.374465   4.328242   2.797420   1.774518   4.278958
    17  H    3.155606   3.792342   2.087599   1.763826   3.320879
                   11         12         13         14         15
    11  H    0.000000
    12  H    2.341245   0.000000
    13  H    2.535808   1.780483   0.000000
    14  H    3.703317   2.489820   3.057645   0.000000
    15  H    4.237244   2.310573   2.522815   1.777447   0.000000
    16  H    4.684731   3.810797   2.684777   3.066295   2.492253
    17  H    4.242260   3.948311   3.217018   2.508783   3.066889
                   16         17
    16  H    0.000000
    17  H    1.773356   0.000000
 Stoichiometry    C5H12
 Framework group  C1[X(C5H12)]
 Deg. of freedom    45
 Full point group                 C1      NOp   1
 Largest Abelian subgroup         C1      NOp   1
 Largest concise Abelian subgroup C1      NOp   1
                         Standard orientation:                         
 ---------------------------------------------------------------------
 Center     Atomic      Atomic             Coordinates (Angstroms)
 Number     Number       Type             X           Y           Z
 ---------------------------------------------------------------------
      1          6           0        1.724673    0.936342   -0.068114
      2          6           0        1.317206   -0.522415    0.277997
      3          6           0        0.014556   -1.030683   -0.379019
      4          6           0       -1.323132   -0.526125    0.219599
      5          6           0       -1.727800    0.935823   -0.037042
      6          1           0        2.109065    1.458028    0.812045
      7          1           0        2.508418    0.941197   -0.829942
      8          1           0        0.887800    1.510791   -0.460571
      9          1           0       -2.702235    1.129460    0.420741
     10          1           0        1.205347   -0.635578    1.361484
     11          1           0        2.126882   -1.180471   -0.049362
     12          1           0       -0.005088   -2.120809   -0.277174
     13          1           0        0.048996   -0.779094   -1.446361
     14          1           0       -1.284589   -0.684309    1.303505
     15          1           0       -2.107793   -1.166437   -0.196231
     16          1           0       -1.806459    1.132163   -1.111085
     17          1           0       -1.013369    1.637405    0.392421
 ---------------------------------------------------------------------
 Rotational constants (GHZ):           7.0164480           3.1375235           2.4228882
 Standard basis: 6-31G(d) (6D, 7F)
 There are    99 symmetry adapted cartesian basis functions of A   symmetry.
 There are    99 symmetry adapted basis functions of A   symmetry.
    99 basis functions,   188 primitive gaussians,    99 cartesian basis functions
    21 alpha electrons       21 beta electrons
       nuclear repulsion energy       188.9055147087 Hartrees.
 NAtoms=   17 NActive=   17 NUniq=   17 SFac= 1.00D+00 NAtFMM=   60 NAOKFM=F Big=F
 Integral buffers will be    131072 words long.
 Raffenetti 2 integral format.
 Two-electron integral symmetry is turned on.
 Nuclear repulsion after empirical dispersion term =      188.9051943334 Hartrees.
 One-electron integrals computed using PRISM.
 NBasis=    99 RedAO= T EigKep=  5.10D-03  NBF=    99
 NBsUse=    99 1.00D-06 EigRej= -1.00D+00 NBFU=    99
 Initial guess from the checkpoint file:  "pentane_9.chk"
 B after Tr=     0.000000   -0.000000   -0.000000
         Rot=    0.999994   -0.000603   -0.000223    0.003301 Ang=  -0.39 deg.
 ExpMin= 1.61D-01 ExpMax= 3.05D+03 ExpMxC= 4.57D+02 IAcc=2 IRadAn=         4 AccDes= 0.00D+00
 Harris functional with IExCor= 1009 and IRadAn=       4 diagonalized for initial guess.
 HarFok:  IExCor= 1009 AccDes= 0.00D+00 IRadAn=         4 IDoV= 1 UseB2=F ITyADJ=14
 ICtDFT=  3500011 ScaDFX=  1.000000  1.000000  1.000000  1.000000
 FoFCou: FMM=F IPFlag=           0 FMFlag=      100000 FMFlg1=           0
         NFxFlg=           0 DoJE=T BraDBF=F KetDBF=T FulRan=T
         wScrn=  0.000000 ICntrl=       500 IOpCl=  0 I1Cent=   200000004 NGrid=           0
         NMat0=    1 NMatS0=      1 NMatT0=    0 NMatD0=    1 NMtDS0=    0 NMtDT0=    0
 Petite list used in FoFCou.
 Keep R1 ints in memory in canonical form, NReq=15944043.
 Requested convergence on RMS density matrix=1.00D-08 within 128 cycles.
 Requested convergence on MAX density matrix=1.00D-06.
 Requested convergence on             energy=1.00D-06.
 No special actions if energy rises.
 Integral accuracy reduced to 1.0D-05 until final iterations.
 Initial convergence to 1.0D-05 achieved.  Increase integral accuracy.
 SCF Done:  E(RM062X) =  -197.640508101     A.U. after   11 cycles
            NFock= 11  Conv=0.37D-08     -V/T= 2.0096
 Calling FoFJK, ICntrl=      2127 FMM=F ISym2X=0 I1Cent= 0 IOpClX= 0 NMat=1 NMatS=1 NMatT=0.
 ***** Axes restored to original set *****
 -------------------------------------------------------------------
 Center     Atomic                   Forces (Hartrees/Bohr)
 Number     Number              X              Y              Z
 -------------------------------------------------------------------
      1        6           0.007213604    0.005610272   -0.000948078
      2        6          -0.005361132   -0.001124889    0.008815262
      3        6          -0.010818672   -0.001751322   -0.000003885
      4        6          -0.000953288   -0.007714611   -0.004808532
      5        6           0.007763059    0.001468953   -0.003051413
      6        1          -0.000184063   -0.001105982   -0.000140582
      7        1          -0.000817060   -0.000769347    0.000410483
      8        1          -0.001499432   -0.000217491    0.001998083
      9        1          -0.000430912   -0.000951816    0.000991947
     10        1           0.000576724   -0.000172497   -0.002692420
     11        1           0.000307651    0.003220730   -0.003081072
     12        1           0.002469542   -0.002908038    0.000824410
     13        1           0.003587929    0.000567801    0.001773938
     14        1           0.001998251    0.003275428    0.001283819
     15        1          -0.000820778    0.003843531   -0.000413556
     16        1          -0.001032029   -0.000918083   -0.000038198
     17        1          -0.001999395   -0.000352641   -0.000920208
 -------------------------------------------------------------------
 Cartesian Forces:  Max     0.010818672 RMS     0.003362422

 GradGradGradGradGradGradGradGradGradGradGradGradGradGradGradGradGradGrad
 Berny optimization.
 Using GEDIIS/GDIIS optimizer.
 FormGI is forming the generalized inverse of G from B-inverse, IUseBI=4.
 Internal  Forces:  Max     0.007195791 RMS     0.002159993
 Search for a local minimum.
 Step number   3 out of a maximum of  102
 All quantities printed in internal units (Hartrees-Bohrs-Radians)
 Mixed Optimization -- RFO/linear search
 Update second derivatives using D2CorX and points    1    2    3
 DE= -1.09D-02 DEPred=-1.10D-02 R= 9.88D-01
 TightC=F SS=  1.41D+00  RLast= 2.68D-01 DXNew= 5.0454D-01 8.0450D-01
 Trust test= 9.88D-01 RLast= 2.68D-01 DXMaxT set to 5.05D-01
 ITU=  1  0  0
 Use linear search instead of GDIIS.
     Eigenvalues ---    0.00236   0.00238   0.00242   0.00261   0.03032
     Eigenvalues ---    0.03173   0.03527   0.04706   0.04722   0.04765
     Eigenvalues ---    0.05338   0.05437   0.05498   0.05624   0.08765
     Eigenvalues ---    0.08928   0.09123   0.12604   0.12756   0.12793
     Eigenvalues ---    0.15750   0.16000   0.16000   0.16000   0.16015
     Eigenvalues ---    0.16057   0.22054   0.22104   0.27185   0.28441
     Eigenvalues ---    0.28507   0.28639   0.38147   0.39758   0.39781
     Eigenvalues ---    0.39806   0.39831   0.39843   0.39869   0.39899
     Eigenvalues ---    0.39919   0.39954   0.39982   0.40983   0.96211
 RFO step:  Lambda=-4.65867256D-03 EMin= 2.36390431D-03
 Quartic linear search produced a step of  0.11469.
 Iteration  1 RMS(Cart)=  0.13294544 RMS(Int)=  0.00724264
 Iteration  2 RMS(Cart)=  0.01054434 RMS(Int)=  0.00014699
 Iteration  3 RMS(Cart)=  0.00006078 RMS(Int)=  0.00014391
 Iteration  4 RMS(Cart)=  0.00000000 RMS(Int)=  0.00014391
 Variable       Old X    -DE/DX   Delta X   Delta X   Delta X     New X
                                 (Linear)    (Quad)   (Total)
    R1        2.93595  -0.00579   0.00136  -0.02484  -0.02348   2.91247
    R2        2.06542   0.00004   0.00637  -0.00665  -0.00027   2.06515
    R3        2.06548   0.00027   0.00640  -0.00598   0.00042   2.06590
    R4        2.05657   0.00247   0.00817   0.00566   0.01383   2.07040
    R5        2.91955  -0.00564  -0.00283  -0.02792  -0.03075   2.88880
    R6        2.06946   0.00098   0.00691  -0.00425   0.00266   2.07212
    R7        2.06645   0.00064   0.00664  -0.00506   0.00158   2.06803
    R8        2.92897  -0.00717  -0.00363  -0.03726  -0.04090   2.88807
    R9        2.06934   0.00048   0.00663  -0.00553   0.00110   2.07045
   R10        2.07328   0.00126   0.00715  -0.00367   0.00348   2.07676
   R11        2.90730  -0.00449  -0.00096  -0.01778  -0.01873   2.88857
   R12        2.07126   0.00111   0.00707  -0.00397   0.00310   2.07436
   R13        2.06889   0.00070   0.00661  -0.00481   0.00180   2.07069
   R14        2.06714   0.00004   0.00639  -0.00667  -0.00028   2.06686
   R15        2.06863   0.00040   0.00665  -0.00570   0.00094   2.06957
   R16        2.05891   0.00202   0.00791   0.00322   0.01113   2.07004
    A1        1.94013   0.00109   0.00248   0.00651   0.00894   1.94908
    A2        1.92570   0.00127   0.00248   0.00799   0.01042   1.93613
    A3        1.95440  -0.00002   0.00164  -0.00524  -0.00361   1.95080
    A4        1.88282  -0.00114  -0.00238  -0.00587  -0.00834   1.87448
    A5        1.88483  -0.00059  -0.00239  -0.00069  -0.00309   1.88175
    A6        1.87308  -0.00076  -0.00209  -0.00327  -0.00536   1.86772
    A7        2.02115  -0.00481   0.00063  -0.03686  -0.03602   1.98514
    A8        1.92221   0.00117   0.00012   0.01287   0.01326   1.93546
    A9        1.87984   0.00198   0.00367   0.01714   0.02084   1.90068
   A10        1.87615   0.00272   0.00054   0.03419   0.03487   1.91102
   A11        1.87446   0.00142  -0.00186   0.00825   0.00652   1.88098
   A12        1.88560  -0.00248  -0.00348  -0.03768  -0.04121   1.84439
   A13        2.04469  -0.00633  -0.00082  -0.05092  -0.05137   1.99332
   A14        1.87872   0.00166   0.00155   0.00895   0.01064   1.88936
   A15        1.88789   0.00287   0.00087   0.03572   0.03694   1.92483
   A16        1.84696   0.00256   0.00117   0.02026   0.02140   1.86836
   A17        1.90517   0.00204  -0.00031   0.02509   0.02520   1.93037
   A18        1.89581  -0.00284  -0.00268  -0.04225  -0.04510   1.85071
   A19        2.06227  -0.00720  -0.00018  -0.05755  -0.05722   2.00504
   A20        1.88032   0.00267  -0.00016   0.02807   0.02825   1.90857
   A21        1.85613   0.00277  -0.00031   0.02488   0.02478   1.88091
   A22        1.88741   0.00254   0.00105   0.02628   0.02770   1.91511
   A23        1.87957   0.00223   0.00222   0.01929   0.02179   1.90136
   A24        1.89273  -0.00303  -0.00298  -0.04355  -0.04685   1.84588
   A25        1.90997   0.00136   0.00066   0.00908   0.00970   1.91968
   A26        1.93158   0.00118   0.00172   0.00741   0.00909   1.94068
   A27        1.95376   0.00044   0.00212  -0.00133   0.00078   1.95454
   A28        1.89109  -0.00121  -0.00140  -0.00709  -0.00855   1.88254
   A29        1.88092  -0.00092  -0.00120  -0.00379  -0.00501   1.87591
   A30        1.89480  -0.00097  -0.00204  -0.00490  -0.00696   1.88785
    D1        2.43558   0.00051   0.00254   0.03153   0.03410   2.46968
    D2        0.30273  -0.00051   0.00128   0.00281   0.00407   0.30680
    D3       -1.74972   0.00067   0.00325   0.03095   0.03412  -1.71560
    D4       -1.75953   0.00063   0.00272   0.03363   0.03642  -1.72310
    D5        2.39081  -0.00039   0.00146   0.00491   0.00639   2.39720
    D6        0.33836   0.00079   0.00343   0.03305   0.03645   0.37481
    D7        0.32560   0.00052   0.00277   0.03147   0.03429   0.35989
    D8       -1.80725  -0.00050   0.00151   0.00275   0.00426  -1.80299
    D9        2.42349   0.00068   0.00348   0.03089   0.03432   2.45780
   D10       -1.32888  -0.00060   0.00297  -0.19100  -0.18782  -1.51671
   D11        2.87752  -0.00108   0.00081  -0.19111  -0.19023   2.68729
   D12        0.83206  -0.00013   0.00267  -0.16496  -0.16232   0.66974
   D13        0.82823  -0.00028   0.00397  -0.17289  -0.16887   0.65936
   D14       -1.24856  -0.00076   0.00181  -0.17300  -0.17128  -1.41983
   D15        2.98917   0.00019   0.00368  -0.14685  -0.14337   2.84580
   D16        2.85350  -0.00108  -0.00078  -0.19535  -0.19601   2.65749
   D17        0.77672  -0.00156  -0.00294  -0.19546  -0.19841   0.57830
   D18       -1.26874  -0.00061  -0.00107  -0.16931  -0.17050  -1.43925
   D19        1.26621  -0.00022  -0.00405  -0.04483  -0.04886   1.21735
   D20       -0.87735  -0.00067  -0.00520  -0.06212  -0.06718  -0.94453
   D21       -2.90374   0.00016  -0.00151  -0.03778  -0.03938  -2.94312
   D22       -2.92329  -0.00010  -0.00170  -0.04974  -0.05153  -2.97482
   D23        1.21633  -0.00055  -0.00284  -0.06703  -0.06984   1.14649
   D24       -0.81006   0.00027   0.00085  -0.04269  -0.04205  -0.85211
   D25       -0.88593  -0.00105  -0.00435  -0.07594  -0.08023  -0.96617
   D26       -3.02949  -0.00150  -0.00550  -0.09323  -0.09855  -3.12804
   D27        1.22730  -0.00068  -0.00180  -0.06890  -0.07075   1.15655
   D28        3.11218  -0.00042  -0.00070  -0.09863  -0.09929   3.01289
   D29        1.02934  -0.00050  -0.00043  -0.10018  -0.10060   0.92874
   D30       -1.08696  -0.00039  -0.00045  -0.09820  -0.09862  -1.18558
   D31       -1.03103   0.00007  -0.00016  -0.08062  -0.08087  -1.11190
   D32       -3.11386  -0.00002   0.00011  -0.08218  -0.08218   3.08714
   D33        1.05303   0.00009   0.00009  -0.08019  -0.08020   0.97282
   D34        1.01101  -0.00097  -0.00195  -0.10781  -0.10968   0.90133
   D35       -1.07183  -0.00106  -0.00168  -0.10937  -0.11099  -1.18282
   D36        3.09506  -0.00095  -0.00170  -0.10738  -0.10901   2.98605
         Item               Value     Threshold  Converged?
 Maximum Force            0.007196     0.000450     NO 
 RMS     Force            0.002160     0.000300     NO 
 Maximum Displacement     0.434625     0.001800     NO 
 RMS     Displacement     0.130985     0.001200     NO 
 Predicted change in Energy=-3.389695D-03
 GradGradGradGradGradGradGradGradGradGradGradGradGradGradGradGradGradGrad

                          Input orientation:                          
 ---------------------------------------------------------------------
 Center     Atomic      Atomic             Coordinates (Angstroms)
 Number     Number       Type             X           Y           Z
 ---------------------------------------------------------------------
      1          6           0        0.121815   -0.225169   -0.162891
      2          6           0        1.090830    0.971765   -0.223694
      3          6           0        1.664526    1.368855    1.136484
      4          6           0        0.794119    2.349455    1.921674
      5          6           0       -0.516530    1.765992    2.449200
      6          1           0       -0.722319   -0.096115   -0.844842
      7          1           0        0.628754   -1.152663   -0.442029
      8          1           0       -0.281107   -0.371027    0.845442
      9          1           0       -1.010986    2.489197    3.103987
     10          1           0        0.609207    1.841751   -0.685772
     11          1           0        1.929705    0.715843   -0.878218
     12          1           0        2.630978    1.857974    0.971728
     13          1           0        1.876042    0.473082    1.736978
     14          1           0        0.584192    3.228702    1.298928
     15          1           0        1.385249    2.718060    2.767479
     16          1           0       -0.338887    0.854216    3.029292
     17          1           0       -1.213587    1.525080    1.639253
 ---------------------------------------------------------------------
                    Distance matrix (angstroms):
                    1          2          3          4          5
     1  C    0.000000
     2  C    1.541213   0.000000
     3  C    2.570845   1.528689   0.000000
     4  C    3.380250   2.566840   1.528303   0.000000
     5  C    3.345927   3.218503   2.576422   1.528566   0.000000
     6  H    1.092829   2.194016   3.430571   3.991742   3.789525
     7  H    1.093229   2.185035   3.150013   4.228388   4.264906
     8  H    1.095608   2.197351   2.626287   3.116955   2.682221
     9  H    4.395852   4.218257   3.504940   2.162359   1.093736
    10  H    2.187032   1.096518   2.158227   2.662843   3.331827
    11  H    2.160014   1.094353   2.134424   3.434769   4.261289
    12  H    3.452932   2.141600   1.095632   2.125560   3.478246
    13  H    2.678501   2.170133   1.098974   2.173810   2.811277
    14  H    3.778879   2.769264   2.156975   1.097706   2.161998
    15  H    4.341190   3.476110   2.135063   1.095760   2.150465
    16  H    3.401081   3.555253   2.803791   2.178591   1.095170
    17  H    2.845065   3.014477   2.925871   2.188661   1.095418
                    6          7          8          9         10
     6  H    0.000000
     7  H    1.761803   0.000000
     8  H    1.768419   1.759654   0.000000
     9  H    4.728680   5.340985   3.716803   0.000000
    10  H    2.356605   3.004381   2.834371   4.172108   0.000000
    11  H    2.773738   2.318200   3.006656   5.258365   1.745972
    12  H    4.285206   3.882208   3.669418   4.267186   2.614408
    13  H    3.706920   2.991127   2.482065   3.777349   3.057424
    14  H    4.166188   4.714793   3.729938   2.519861   2.421424
    15  H    5.040862   5.084852   4.001678   2.430548   3.646245
    16  H    4.007376   4.124799   2.504747   1.769310   3.959269
    17  H    3.006717   3.859568   2.257183   1.765223   2.971296
                   11         12         13         14         15
    11  H    0.000000
    12  H    2.284413   0.000000
    13  H    2.626987   1.753130   0.000000
    14  H    3.586757   2.485013   3.074770   0.000000
    15  H    4.194807   2.348683   2.518480   1.749025   0.000000
    16  H    4.520431   3.749827   2.592538   3.079678   2.552471
    17  H    4.107653   3.916260   3.265281   2.500031   3.074093
                   16         17
    16  H    0.000000
    17  H    1.774082   0.000000
 Stoichiometry    C5H12
 Framework group  C1[X(C5H12)]
 Deg. of freedom    45
 Full point group                 C1      NOp   1
 Largest Abelian subgroup         C1      NOp   1
 Largest concise Abelian subgroup C1      NOp   1
                         Standard orientation:                         
 ---------------------------------------------------------------------
 Center     Atomic      Atomic             Coordinates (Angstroms)
 Number     Number       Type             X           Y           Z
 ---------------------------------------------------------------------
      1          6           0        1.734791    0.854972   -0.107239
      2          6           0        1.217640   -0.519913    0.359221
      3          6           0       -0.014323   -1.005528   -0.404544
[...]
 ! A21   A(3,4,15)             108.7754         -DE/DX =    0.0                 !
 ! A22   A(5,4,14)             109.0997         -DE/DX =    0.0                 !
 ! A23   A(5,4,15)             109.2226         -DE/DX =    0.0                 !
 ! A24   A(14,4,15)            106.2508         -DE/DX =    0.0                 !
 ! A25   A(4,5,9)              111.0488         -DE/DX =    0.0                 !
 ! A26   A(4,5,16)             111.0507         -DE/DX =    0.0                 !
 ! A27   A(4,5,17)             111.4069         -DE/DX =    0.0                 !
 ! A28   A(9,5,16)             107.8789         -DE/DX =    0.0                 !
 ! A29   A(9,5,17)             107.4836         -DE/DX =    0.0                 !
 ! A30   A(16,5,17)            107.8024         -DE/DX =    0.0                 !
 ! D1    D(6,1,2,3)            178.8209         -DE/DX =    0.0                 !
 ! D2    D(6,1,2,10)            55.952          -DE/DX =    0.0                 !
 ! D3    D(6,1,2,11)           -59.216          -DE/DX =    0.0                 !
 ! D4    D(7,1,2,3)            -61.5569         -DE/DX =    0.0                 !
 ! D5    D(7,1,2,10)           175.5743         -DE/DX =    0.0                 !
 ! D6    D(7,1,2,11)            60.4062         -DE/DX =    0.0                 !
 ! D7    D(8,1,2,3)             58.0233         -DE/DX =    0.0                 !
 ! D8    D(8,1,2,10)           -64.8455         -DE/DX =    0.0                 !
 ! D9    D(8,1,2,11)           179.9865         -DE/DX =    0.0                 !
 ! D10   D(1,2,3,4)            -95.2321         -DE/DX =    0.0                 !
 ! D11   D(1,2,3,12)           143.3705         -DE/DX =    0.0                 !
 ! D12   D(1,2,3,13)            27.5855         -DE/DX =    0.0                 !
 ! D13   D(10,2,3,4)            27.9449         -DE/DX =    0.0                 !
 ! D14   D(10,2,3,12)          -93.4526         -DE/DX =    0.0                 !
 ! D15   D(10,2,3,13)          150.7625         -DE/DX =    0.0                 !
 ! D16   D(11,2,3,4)           143.4924         -DE/DX =    0.0                 !
 ! D17   D(11,2,3,12)           22.0949         -DE/DX =    0.0                 !
 ! D18   D(11,2,3,13)          -93.69           -DE/DX =    0.0                 !
 ! D19   D(2,3,4,5)             58.8134         -DE/DX =    0.0                 !
 ! D20   D(2,3,4,14)           -63.44           -DE/DX =    0.0                 !
 ! D21   D(2,3,4,15)          -178.7425         -DE/DX =    0.0                 !
 ! D22   D(12,3,4,5)          -178.9097         -DE/DX =    0.0                 !
 ! D23   D(12,3,4,14)           58.8368         -DE/DX =    0.0                 !
 ! D24   D(12,3,4,15)          -56.4656         -DE/DX =    0.0                 !
 ! D25   D(13,3,4,5)           -63.9403         -DE/DX =    0.0                 !
 ! D26   D(13,3,4,14)          173.8063         -DE/DX =    0.0                 !
 ! D27   D(13,3,4,15)           58.5038         -DE/DX =    0.0                 !
 ! D28   D(3,4,5,9)            175.5899         -DE/DX =    0.0                 !
 ! D29   D(3,4,5,16)            55.5505         -DE/DX =    0.0                 !
 ! D30   D(3,4,5,17)           -64.6323         -DE/DX =    0.0                 !
 ! D31   D(14,4,5,9)           -62.356          -DE/DX =    0.0                 !
 ! D32   D(14,4,5,16)          177.6045         -DE/DX =    0.0                 !
 ! D33   D(14,4,5,17)           57.4218         -DE/DX =    0.0                 !
 ! D34   D(15,4,5,9)            53.3891         -DE/DX =    0.0                 !
 ! D35   D(15,4,5,16)          -66.6504         -DE/DX =    0.0                 !
 ! D36   D(15,4,5,17)          173.1669         -DE/DX =    0.0                 !
 --------------------------------------------------------------------------------
 GradGradGradGradGradGradGradGradGradGradGradGradGradGradGradGradGradGrad

                          Input orientation:                          
 ---------------------------------------------------------------------
 Center     Atomic      Atomic             Coordinates (Angstroms)
 Number     Number       Type             X           Y           Z
 ---------------------------------------------------------------------
      1          6           0        0.159735   -0.297971   -0.148176
      2          6           0        0.952383    1.008154   -0.220633
      3          6           0        1.664367    1.377321    1.093275
      4          6           0        0.879758    2.339539    1.990954
      5          6           0       -0.494243    1.827026    2.417982
      6          1           0       -0.345488   -0.509892   -1.095453
      7          1           0        0.828017   -1.137987    0.069274
      8          1           0       -0.599535   -0.271417    0.638477
      9          1           0       -0.972079    2.519625    3.117228
     10          1           0        0.287908    1.831380   -0.516508
     11          1           0        1.692150    0.916275   -1.023757
     12          1           0        2.632998    1.838538    0.868803
     13          1           0        1.886976    0.458293    1.653546
     14          1           0        0.758833    3.294659    1.463275
     15          1           0        1.477953    2.556009    2.884152
     16          1           0       -0.414640    0.851974    2.911771
     17          1           0       -1.163092    1.713474    1.558790
 ---------------------------------------------------------------------
                    Distance matrix (angstroms):
                    1          2          3          4          5
     1  C    0.000000
     2  C    1.529543   0.000000
     3  C    2.571327   1.539337   0.000000
     4  C    3.471422   2.582436   1.532091   0.000000
     5  C    3.395359   3.118584   2.572291   1.527384   0.000000
     6  H    1.094301   2.180422   3.520174   4.375659   4.222267
     7  H    1.095222   2.169201   2.841625   3.973502   4.007006
     8  H    1.093627   2.187195   2.837329   3.291594   2.753395
     9  H    4.459004   4.138770   3.514555   2.174908   1.094060
    10  H    2.164771   1.098531   2.166151   2.626000   3.036941
    11  H    2.142273   1.095768   2.166832   3.431348   4.177960
    12  H    3.422856   2.168150   1.096063   2.141045   3.489946
    13  H    2.607968   2.165262   1.099123   2.160421   2.850964
    14  H    3.982798   2.846246   2.152459   1.097872   2.153047
    15  H    4.367827   3.508813   2.152044   1.096585   2.153669
    16  H    3.318968   3.421271   2.811616   2.176286   1.095851
    17  H    2.951188   2.852903   2.885174   2.179899   1.094744
                    6          7          8          9         10
     6  H    0.000000
     7  H    1.768673   0.000000
     8  H    1.768594   1.764324   0.000000
     9  H    5.226593   5.090039   3.751388   0.000000
    10  H    2.493576   3.074410   2.557988   3.907081   0.000000
    11  H    2.488184   2.482224   3.070091   5.178476   1.751176
    12  H    4.271393   3.571680   3.867070   4.303008   2.723708
    13  H    3.671277   2.485844   2.783088   3.816497   3.025148
    14  H    4.716060   4.647190   3.904146   2.516405   2.506491
    15  H    5.344337   4.689516   4.165735   2.461363   3.675022
    16  H    4.232883   3.685638   2.542451   1.770314   3.633993
    17  H    3.557645   3.783385   2.259284   1.764963   2.534987
                   11         12         13         14         15
    11  H    0.000000
    12  H    2.305980   0.000000
    13  H    2.723171   1.754266   0.000000
    14  H    3.565547   2.446667   3.058412   0.000000
    15  H    4.243391   2.431157   2.466192   1.755457   0.000000
    16  H    4.464424   3.799358   2.652460   3.072765   2.546842
    17  H    3.931601   3.860314   3.299602   2.490595   3.072714
                   16         17
    16  H    0.000000
    17  H    1.770006   0.000000
 Stoichiometry    C5H12
 Framework group  C1[X(C5H12)]
 Deg. of freedom    45
 Full point group                 C1      NOp   1
 Largest Abelian subgroup         C1      NOp   1
 Largest concise Abelian subgroup C1      NOp   1
                         Standard orientation:                         
 ---------------------------------------------------------------------
 Center     Atomic      Atomic             Coordinates (Angstroms)
 Number     Number       Type             X           Y           Z
 ---------------------------------------------------------------------
      1          6           0        1.820123    0.754241   -0.173504
      2          6           0        1.148826   -0.470779    0.449544
      3          6           0       -0.035884   -1.014564   -0.369187
      4          6           0       -1.406955   -0.499621    0.080590
      5          6           0       -1.558633    1.019430    0.031799
      6          1           0        2.641608    1.118511    0.450968
      7          1           0        2.233262    0.503993   -1.156460
      8          1           0        1.115093    1.578258   -0.314741
      9          1           0       -2.578534    1.320937    0.288433
     10          1           0        0.807683   -0.232088    1.466116
     11          1           0        1.905095   -1.255510    0.563393
     12          1           0       -0.050373   -2.109005   -0.311383
     13          1           0        0.114654   -0.767370   -1.429520
     14          1           0       -1.595292   -0.846732    1.104976
     15          1           0       -2.179925   -0.959960   -0.546391
     16          1           0       -1.335560    1.405331   -0.969305
     17          1           0       -0.882570    1.511394    0.738463
 ---------------------------------------------------------------------
 Rotational constants (GHZ):           7.2559639           3.2248616           2.5456478

 **********************************************************************

            Population analysis using the SCF density.

 **********************************************************************

 Orbital symmetries:
       Occupied  (A) (A) (A) (A) (A) (A) (A) (A) (A) (A) (A) (A)
                 (A) (A) (A) (A) (A) (A) (A) (A) (A)
       Virtual   (A) (A) (A) (A) (A) (A) (A) (A) (A) (A) (A) (A)
                 (A) (A) (A) (A) (A) (A) (A) (A) (A) (A) (A) (A)
                 (A) (A) (A) (A) (A) (A) (A) (A) (A) (A) (A) (A)
                 (A) (A) (A) (A) (A) (A) (A) (A) (A) (A) (A) (A)
                 (A) (A) (A) (A) (A) (A) (A) (A) (A) (A) (A) (A)
                 (A) (A) (A) (A) (A) (A) (A) (A) (A) (A) (A) (A)
                 (A) (A) (A) (A) (A) (A)
 The electronic state is 1-A.
 Alpha  occ. eigenvalues --  -10.53481 -10.53453 -10.53249 -10.52816 -10.52694
 Alpha  occ. eigenvalues --   -0.89702  -0.83590  -0.76626  -0.68806  -0.63886
 Alpha  occ. eigenvalues --   -0.53398  -0.51516  -0.49532  -0.46397  -0.45097
 Alpha  occ. eigenvalues --   -0.42997  -0.41567  -0.40175  -0.37573  -0.36882
 Alpha  occ. eigenvalues --   -0.36203
 Alpha virt. eigenvalues --    0.12936   0.16607   0.17327   0.17722   0.19197
 Alpha virt. eigenvalues --    0.20938   0.22171   0.22330   0.23612   0.24609
 Alpha virt. eigenvalues --    0.24802   0.26255   0.28022   0.29250   0.32837
 Alpha virt. eigenvalues --    0.35213   0.53921   0.57451   0.57914   0.58457
 Alpha virt. eigenvalues --    0.60103   0.64316   0.66495   0.71679   0.72891
 Alpha virt. eigenvalues --    0.76073   0.77525   0.78287   0.80954   0.91494
 Alpha virt. eigenvalues --    0.93453   0.94349   0.94567   0.95506   0.97619
 Alpha virt. eigenvalues --    0.97906   1.01004   1.02521   1.03652   1.04569
 Alpha virt. eigenvalues --    1.05153   1.06863   1.08778   1.11239   1.21797
 Alpha virt. eigenvalues --    1.46070   1.49449   1.53430   1.63671   1.65417
 Alpha virt. eigenvalues --    1.72087   1.72473   1.80092   1.94122   1.95681
 Alpha virt. eigenvalues --    1.97506   2.01390   2.05974   2.08542   2.12090
 Alpha virt. eigenvalues --    2.18976   2.25207   2.30973   2.36226   2.37352
 Alpha virt. eigenvalues --    2.39849   2.42305   2.45806   2.49838   2.62190
 Alpha virt. eigenvalues --    2.65288   2.70145   2.75252   4.14864   4.24208
 Alpha virt. eigenvalues --    4.35930   4.49960   4.56038
          Condensed to atoms (all electrons):
               1          2          3          4          5          6
     1  C    5.101395   0.363451  -0.043915  -0.001270  -0.001546   0.380533
     2  C    0.363451   5.037129   0.353065  -0.043347  -0.002533  -0.031716
     3  C   -0.043915   0.353065   5.056241   0.378498  -0.054093   0.004468
     4  C   -0.001270  -0.043347   0.378498   4.997136   0.363493  -0.000084
     5  C   -0.001546  -0.002533  -0.054093   0.363493   5.108739  -0.000027
     6  H    0.380533  -0.031716   0.004468  -0.000084  -0.000027   0.551001
     7  H    0.383923  -0.035438  -0.005803   0.000110   0.000016  -0.028326
     8  H    0.384444  -0.038708  -0.002122  -0.000219   0.001869  -0.028072
     9  H    0.000161  -0.000117   0.004657  -0.030088   0.381613  -0.000003
    10  H   -0.039309   0.387156  -0.047438  -0.005665  -0.000982  -0.002704
    11  H   -0.039926   0.388971  -0.034929   0.003743   0.000083  -0.002971
    12  H    0.004135  -0.035386   0.383915  -0.036456   0.005170  -0.000159
    13  H   -0.006678  -0.048279   0.383971  -0.038489  -0.005522   0.000213
    14  H    0.000022  -0.006824  -0.039566   0.386274  -0.041661   0.000009
    15  H   -0.000208   0.005229  -0.038212   0.387811  -0.040044   0.000003
    16  H   -0.000271  -0.001353  -0.002949  -0.037948   0.383278   0.000024
    17  H   -0.003273   0.005592  -0.006152  -0.033678   0.383045   0.000166
               7          8          9         10         11         12
     1  C    0.383923   0.384444   0.000161  -0.039309  -0.039926   0.004135
     2  C   -0.035438  -0.038708  -0.000117   0.387156   0.388971  -0.035386
     3  C   -0.005803  -0.002122   0.004657  -0.047438  -0.034929   0.383915
     4  C    0.000110  -0.000219  -0.030088  -0.005665   0.003743  -0.036456
     5  C    0.000016   0.001869   0.381613  -0.000982   0.000083   0.005170
     6  H   -0.028326  -0.028072  -0.000003  -0.002704  -0.002971  -0.000159
     7  H    0.554951  -0.030385  -0.000005   0.004855  -0.004639   0.000104
     8  H   -0.030385   0.549776   0.000101  -0.003902   0.004867  -0.000036
     9  H   -0.000005   0.000101   0.547860  -0.000111   0.000002  -0.000138
    10  H    0.004855  -0.003902  -0.000111   0.581709  -0.034315   0.001440
    11  H   -0.004639   0.004867   0.000002  -0.034315   0.572182  -0.007600
    12  H    0.000104  -0.000036  -0.000138   0.001440  -0.007600   0.574390
    13  H    0.004454   0.000595  -0.000040   0.004991   0.001221  -0.032995
    14  H    0.000004   0.000065  -0.002445   0.004503   0.000026  -0.003914
    15  H    0.000011  -0.000057  -0.004226   0.000215  -0.000158  -0.003201
    16  H    0.000053   0.001168  -0.028433   0.000229  -0.000018  -0.000006
    17  H    0.000067   0.001395  -0.028885   0.001766  -0.000027  -0.000049
              13         14         15         16         17
     1  C   -0.006678   0.000022  -0.000208  -0.000271  -0.003273
     2  C   -0.048279  -0.006824   0.005229  -0.001353   0.005592
     3  C    0.383971  -0.039566  -0.038212  -0.002949  -0.006152
     4  C   -0.038489   0.386274   0.387811  -0.037948  -0.033678
     5  C   -0.005522  -0.041661  -0.040044   0.383278   0.383045
     6  H    0.000213   0.000009   0.000003   0.000024   0.000166
     7  H    0.004454   0.000004   0.000011   0.000053   0.000067
     8  H    0.000595   0.000065  -0.000057   0.001168   0.001395
     9  H   -0.000040  -0.002445  -0.004226  -0.028433  -0.028885
    10  H    0.004991   0.004503   0.000215   0.000229   0.001766
    11  H    0.001221   0.000026  -0.000158  -0.000018  -0.000027
    12  H   -0.032995  -0.003914  -0.003201  -0.000006  -0.000049
    13  H    0.586579   0.005470  -0.003695   0.004583  -0.000129
    14  H    0.005470   0.584110  -0.034073   0.005104  -0.004925
    15  H   -0.003695  -0.034073   0.579110  -0.003474   0.004860
    16  H    0.004583   0.005104  -0.003474   0.558115  -0.032333
    17  H   -0.000129  -0.004925   0.004860  -0.032333   0.554394
 Mulliken charges:
               1
     1  C   -0.481670
     2  C   -0.296890
     3  C   -0.289636
     4  C   -0.289821
     5  C   -0.480899
     6  H    0.157642
     7  H    0.156048
     8  H    0.159218
     9  H    0.160096
    10  H    0.147562
    11  H    0.153489
    12  H    0.150785
    13  H    0.143749
    14  H    0.147820
    15  H    0.150109
    16  H    0.154230
    17  H    0.158167
 Sum of Mulliken charges =  -0.00000
 Mulliken charges with hydrogens summed into heavy atoms:
               1
     1  C   -0.008761
     2  C    0.004162
     3  C    0.004898
     4  C    0.008108
     5  C   -0.008406
 Electronic spatial extent (au):  <R**2>=            566.4733
 Charge=             -0.0000 electrons
 Dipole moment (field-independent basis, Debye):
    X=             -0.0332    Y=             -0.0989    Z=              0.0272  Tot=              0.1078
 Quadrupole moment (field-independent basis, Debye-Ang):
   XX=            -34.8521   YY=            -35.1574   ZZ=            -34.7408
   XY=             -0.1519   XZ=              0.0758   YZ=              0.0857
 Traceless Quadrupole moment (field-independent basis, Debye-Ang):
   XX=              0.0647   YY=             -0.2406   ZZ=              0.1759
   XY=             -0.1519   XZ=              0.0758   YZ=              0.0857
 Octapole moment (field-independent basis, Debye-Ang**2):
  XXX=             -0.6600  YYY=             -1.8055  ZZZ=             -0.2961  XYY=              0.1838
  XXY=             -0.4029  XXZ=              0.3684  XZZ=              0.0480  YZZ=              0.2945
  YYZ=              0.3570  XYZ=              0.2429
 Hexadecapole moment (field-independent basis, Debye-Ang**3):
 XXXX=           -468.3737 YYYY=           -218.1250 ZZZZ=            -89.0166 XXXY=             -2.2306
 XXXZ=              1.5657 YYYX=             -0.5747 YYYZ=             -0.0429 ZZZX=             -1.0092
 ZZZY=             -0.4052 XXYY=           -115.9165 XXZZ=            -93.4380 YYZZ=            -52.1685
 XXYZ=              2.2724 YYXZ=              1.1546 ZZXY=              0.6688
 N-N= 1.910423735017D+02 E-N=-8.381200148389D+02  KE= 1.958184378291D+02
 1\1\GINC-ROBERTS-MACBOOK-PRO-2\FOpt\RM062X\6-31G(d)\C5H12\ROBERT.PATON
 \21-Sep-2018\0\\# opt=(maxcycles=160) M062X/6-31G(d) emp=GD3\\Generate
 d by prepare_file.py\\0,1\C,0.1597346248,-0.2979707121,-0.1481759325\C
 ,0.9523830252,1.0081539011,-0.2206326699\C,1.6643674045,1.3773211039,1
 .0932750703\C,0.8797582323,2.3395390154,1.9909541133\C,-0.4942432795,1
 .8270256683,2.4179819795\H,-0.3454878047,-0.509891737,-1.0954531599\H,
 0.8280166472,-1.1379866867,0.0692736305\H,-0.599535257,-0.271417068,0.
 6384773914\H,-0.9720793743,2.51962518,3.1172280534\H,0.2879077891,1.83
 13802609,-0.5165077643\H,1.6921503163,0.9162753569,-1.0237574544\H,2.6
 329977437,1.8385376262,0.8688026771\H,1.8869756309,0.4582925442,1.6535
 464159\H,0.758832756,3.2946589913,1.4632753751\H,1.477953352,2.5560085
 505,2.8841522419\H,-0.4146397611,0.8519738189,2.9117705225\H,-1.163092
 0453,1.7134741862,1.5587895101\\Version=EM64M-G16RevA.03\State=1-A\HF=
 -197.6464964\RMSD=7.123e-09\RMSF=2.949e-06\Dipole=0.0296778,0.0300972,
 -0.0033481\Quadrupole=-0.0625554,-0.0783212,0.1408766,-0.1722537,0.020
 2906,-0.0261122\PG=C01 [X(C5H12)]\\@


 OF ALL THE WONDERS OF THE UNIVERSE, THE GREATEST IS MAN.

                                    -- ARISTOTLE
 Job cpu time:       0 days  0 hours 25 minutes 20.4 seconds.
 Elapsed time:       0 days  0 hours  8 minutes 37.3 seconds.
 File lengths (MBytes):  RWF=     10 Int=      0 D2E=      0 Chk=      2 Scr=      1
 Normal termination of Gaussian 16 at Fri Sep 21 23:27:25 2018.
