 Entering Gaussian System, Link 0=g16
 Initial command:
 /Applications/g16/l1.exe "/var/folders/hc/gtglrcdn25lc_0x4jfkqf1nh0000gn/T/Gau-28982.inp" -scrdir="/var/folders/hc/gtglrcdn25lc_0x4jfkqf1nh0000gn/T/"
 Entering Link 1 = /Applications/g16/l1.exe PID=     28983.
  
 Copyright (c) 1988,1990,1992,1993,1995,1998,2003,2009,2016,
            Gaussian, Inc.  All Rights Reserved.
  
 This is part of the Gaussian(R) 16 program.  It is based on
 the Gaussian(R) 09 system (copyright 2009, Gaussian, Inc.),
 the Gaussian(R) 03 system (copyright 2003, Gaussian, Inc.),
 the Gaussian(R) 98 system (copyright 1998, Gaussian, Inc.),
 the Gaussian(R) 94 system (copyright 1995, Gaussian, Inc.),
 the Gaussian 92(TM) system (copyright 1992, Gaussian, Inc.),
 the Gaussian 90(TM) system (copyright 1990, Gaussian, Inc.),
 the Gaussian 88(TM) system (copyright 1988, Gaussian, Inc.),
 the Gaussian 86(TM) system (copyright 1986, Carnegie Mellon
 University), and the Gaussian 82(TM) system (copyright 1983,
 Carnegie Mellon University). Gaussian is a federally registered
 trademark of Gaussian, Inc.
  
 This software contains proprietary and confidential information,
 including trade secrets, belonging to Gaussian, Inc.
  
 This software is provided under written license and may be
 used, copied, transmitted, or stored only in accord with that
 written license.
  
 The following legend is applicable only to US Government
 contracts under FAR:
  
                    RESTRICTED RIGHTS LEGEND
  
 Use, reproduction and disclosure by the US Government is
 subject to restrictions as set forth in subparagraphs (a)
 and (c) of the Commercial Computer Software - Restricted
 Rights clause in FAR 52.227-19.
  
 Gaussian, Inc.
 340 Quinnipiac St., Bldg. 40, Wallingford CT 06492
  
  
 ---------------------------------------------------------------
 Warning -- This program may not be used in any manner that
 competes with the business of Gaussian, Inc. or will provide
 assistance to any competitor of Gaussian, Inc.  The licensee
 of this program is prohibited from giving any competitor of
 Gaussian, Inc. access to this program.  By using this program,
 the user acknowledges that Gaussian, Inc. is engaged in the
 business of creating and licensing software in the field of
 computational chemistry and represents and warrants to the
 licensee that it is not a competitor of Gaussian, Inc. and that
 it will not use this program in any manner prohibited above.
 ---------------------------------------------------------------
  

 Cite this work as:
 Gaussian 16, Revision A.03,
 M. J. Frisch, G. W. Trucks, H. B. Schlegel, G. E. Scuseria, 
 M. A. Robb, J. R. Cheeseman, G. Scalmani, V. Barone, 
 G. A. Petersson, H. Nakatsuji, X. Li, M. Caricato, A. V. Marenich, 
 J. Bloino, B. G. Janesko, R. Gomperts, B. Mennucci, H. P. Hratchian, 
 J. V. Ortiz, A. F. Izmaylov, J. L. Sonnenberg, D. Williams-Young, 
 F. Ding, F. Lipparini, F. Egidi, J. Goings, B. Peng, A. Petrone, 
 T. Henderson, D. Ranasinghe, V. G. Zakrzewski, J. Gao, N. Rega, 
 G. Zheng, W. Liang, M. Hada, M. Ehara, K. Toyota, R. Fukuda, 
 J. Hasegawa, M. Ishida, T. Nakajima, Y. Honda, O. Kitao, H. Nakai, 
 T. Vreven, K. Throssell, J. A. Montgomery, Jr., J. E. Peralta, 
 F. Ogliaro, M. J. Bearpark, J. J. Heyd, E. N. Brothers, K. N. Kudin, 
 V. N. Staroverov, T. A. Keith, R. Kobayashi, J. Normand, 
 K. Raghavachari, A. P. Rendell, J. C. Burant, S. S. Iyengar, 
 J. Tomasi, M. Cossi, J. M. Millam, M. Klene, C. Adamo, R. Cammi, 
 J. W. Ochterski, R. L. Martin, K. Morokuma, O. Farkas, 
 J. B. Foresman, and D. J. Fox, Gaussian, Inc., Wallingford CT, 2016.
 
 ******************************************
 Gaussian 16:  EM64M-G16RevA.03 25-Dec-2016
                22-Sep-2018 
 ******************************************
 %mem=1GB
 %nprocshared=4
 Will use up to    4 processors via shared memory.
 %chk=pentane_18.chk
 --------------------------------------------
 # opt=(maxcycles=160) M062X/6-31G(d) emp=GD3
 --------------------------------------------
 1/6=160,18=20,19=15,26=3,38=1/1,3;
 2/9=110,12=2,17=6,18=5,40=1/2;
 3/5=1,6=6,7=1,11=2,25=1,30=1,71=1,74=-55,124=31/1,2,3;
 4//1;
 5/5=2,38=5/2;
 6/7=2,8=2,9=2,10=2,28=1/1;
 7//1,2,3,16;
 1/6=160,18=20,19=15,26=3/3(2);
 2/9=110/2;
 99//99;
 2/9=110/2;
 3/5=1,6=6,7=1,11=2,25=1,30=1,71=1,74=-55,124=31/1,2,3;
 4/5=5,16=3,69=1/1;
 5/5=2,38=5/2;
 7//1,2,3,16;
 1/6=160,18=20,19=15,26=3/3(-5);
 2/9=110/2;
 6/7=2,8=2,9=2,10=2,19=2,28=1/1;
 99/9=1/99;
 ----------------------------
 Generated by prepare_file.py
 ----------------------------
 Symbolic Z-matrix:
 Charge =  0 Multiplicity = 1
 C                     0.        0.        0. 
 C                     1.171     0.975    -0.22 
 C                     1.752     1.396     1.143 
 C                     2.194     2.87      1.079 
 C                     3.468     3.062     1.921 
 H                    -0.785     0.244    -0.653 
 H                     0.322    -0.981    -0.19 
 H                    -0.335     0.073     0.993 
 H                     3.769     4.067     1.878 
 H                     0.828     1.825    -0.731 
 H                     1.917     0.503    -0.787 
 H                     2.581     0.793     1.372 
 H                     1.02      1.283     1.887 
 H                     1.429     3.482     1.456 
 H                     2.391     3.132     0.081 
 H                     4.235     2.452     1.541 
 H                     3.272     2.798     2.918 
 

 GradGradGradGradGradGradGradGradGradGradGradGradGradGradGradGradGradGrad
 Berny optimization.
 Initialization pass.
                           ----------------------------
                           !    Initial Parameters    !
                           ! (Angstroms and Degrees)  !
 --------------------------                            --------------------------
 ! Name  Definition              Value          Derivative Info.                !
 --------------------------------------------------------------------------------
 ! R1    R(1,2)                  1.5396         estimate D2E/DX2                !
 ! R2    R(1,6)                  1.0498         estimate D2E/DX2                !
 ! R3    R(1,7)                  1.0498         estimate D2E/DX2                !
 ! R4    R(1,8)                  1.0505         estimate D2E/DX2                !
 ! R5    R(2,3)                  1.5403         estimate D2E/DX2                !
 ! R6    R(2,10)                 1.0494         estimate D2E/DX2                !
 ! R7    R(2,11)                 1.0492         estimate D2E/DX2                !
 ! R8    R(3,4)                  1.5402         estimate D2E/DX2                !
 ! R9    R(3,12)                 1.0504         estimate D2E/DX2                !
 ! R10   R(3,13)                 1.0498         estimate D2E/DX2                !
 ! R11   R(4,5)                  1.5391         estimate D2E/DX2                !
 ! R12   R(4,14)                 1.0497         estimate D2E/DX2                !
 ! R13   R(4,15)                 1.0505         estimate D2E/DX2                !
 ! R14   R(5,9)                  1.05           estimate D2E/DX2                !
 ! R15   R(5,16)                 1.0511         estimate D2E/DX2                !
 ! R16   R(5,17)                 1.0498         estimate D2E/DX2                !
 ! A1    A(2,1,6)              109.4301         estimate D2E/DX2                !
 ! A2    A(2,1,7)              109.428          estimate D2E/DX2                !
 ! A3    A(2,1,8)              109.4882         estimate D2E/DX2                !
 ! A4    A(6,1,7)              109.5086         estimate D2E/DX2                !
 ! A5    A(6,1,8)              109.472          estimate D2E/DX2                !
 ! A6    A(7,1,8)              109.5003         estimate D2E/DX2                !
 ! A7    A(1,2,3)              109.4839         estimate D2E/DX2                !
 ! A8    A(1,2,10)             109.5077         estimate D2E/DX2                !
 ! A9    A(1,2,11)             109.459          estimate D2E/DX2                !
 ! A10   A(3,2,10)             109.438          estimate D2E/DX2                !
 ! A11   A(3,2,11)             109.4492         estimate D2E/DX2                !
 ! A12   A(10,2,11)            109.4895         estimate D2E/DX2                !
 ! A13   A(2,3,4)              109.4543         estimate D2E/DX2                !
 ! A14   A(2,3,12)             109.4941         estimate D2E/DX2                !
 ! A15   A(2,3,13)             109.5534         estimate D2E/DX2                !
 ! A16   A(4,3,12)             109.3888         estimate D2E/DX2                !
 ! A17   A(4,3,13)             109.4243         estimate D2E/DX2                !
 ! A18   A(12,3,13)            109.5122         estimate D2E/DX2                !
 ! A19   A(3,4,5)              109.5239         estimate D2E/DX2                !
 ! A20   A(3,4,14)             109.5057         estimate D2E/DX2                !
 ! A21   A(3,4,15)             109.3901         estimate D2E/DX2                !
 ! A22   A(5,4,14)             109.5136         estimate D2E/DX2                !
 ! A23   A(5,4,15)             109.4752         estimate D2E/DX2                !
 ! A24   A(14,4,15)            109.4188         estimate D2E/DX2                !
 ! A25   A(4,5,9)              109.5292         estimate D2E/DX2                !
 ! A26   A(4,5,16)             109.5022         estimate D2E/DX2                !
 ! A27   A(4,5,17)             109.4893         estimate D2E/DX2                !
 ! A28   A(9,5,16)             109.3593         estimate D2E/DX2                !
 ! A29   A(9,5,17)             109.4577         estimate D2E/DX2                !
 ! A30   A(16,5,17)            109.4896         estimate D2E/DX2                !
 ! D1    D(6,1,2,3)            137.7376         estimate D2E/DX2                !
 ! D2    D(6,1,2,10)            17.7482         estimate D2E/DX2                !
 ! D3    D(6,1,2,11)          -102.2891         estimate D2E/DX2                !
 ! D4    D(7,1,2,3)           -102.2681         estimate D2E/DX2                !
 ! D5    D(7,1,2,10)           137.7425         estimate D2E/DX2                !
 ! D6    D(7,1,2,11)            17.7052         estimate D2E/DX2                !
 ! D7    D(8,1,2,3)             17.7515         estimate D2E/DX2                !
 ! D8    D(8,1,2,10)          -102.2379         estimate D2E/DX2                !
 ! D9    D(8,1,2,11)           137.7248         estimate D2E/DX2                !
 ! D10   D(1,2,3,4)           -144.0076         estimate D2E/DX2                !
 ! D11   D(1,2,3,12)            96.0897         estimate D2E/DX2                !
 ! D12   D(1,2,3,13)           -24.025          estimate D2E/DX2                !
 ! D13   D(10,2,3,4)           -23.9755         estimate D2E/DX2                !
 ! D14   D(10,2,3,12)         -143.8783         estimate D2E/DX2                !
 ! D15   D(10,2,3,13)           96.007          estimate D2E/DX2                !
 ! D16   D(11,2,3,4)            96.0131         estimate D2E/DX2                !
 ! D17   D(11,2,3,12)          -23.8896         estimate D2E/DX2                !
 ! D18   D(11,2,3,13)         -144.0044         estimate D2E/DX2                !
 ! D19   D(2,3,4,5)           -144.0144         estimate D2E/DX2                !
 ! D20   D(2,3,4,14)            95.8803         estimate D2E/DX2                !
 ! D21   D(2,3,4,15)           -24.0269         estimate D2E/DX2                !
 ! D22   D(12,3,4,5)           -24.0471         estimate D2E/DX2                !
 ! D23   D(12,3,4,14)         -144.1525         estimate D2E/DX2                !
 ! D24   D(12,3,4,15)           95.9404         estimate D2E/DX2                !
 ! D25   D(13,3,4,5)            95.924          estimate D2E/DX2                !
 ! D26   D(13,3,4,14)          -24.1814         estimate D2E/DX2                !
 ! D27   D(13,3,4,15)         -144.0885         estimate D2E/DX2                !
 ! D28   D(3,4,5,9)           -179.9586         estimate D2E/DX2                !
 ! D29   D(3,4,5,16)            60.124          estimate D2E/DX2                !
 ! D30   D(3,4,5,17)           -59.9286         estimate D2E/DX2                !
 ! D31   D(14,4,5,9)           -59.8581         estimate D2E/DX2                !
 ! D32   D(14,4,5,16)         -179.7754         estimate D2E/DX2                !
 ! D33   D(14,4,5,17)           60.172          estimate D2E/DX2                !
 ! D34   D(15,4,5,9)            60.1061         estimate D2E/DX2                !
 ! D35   D(15,4,5,16)          -59.8113         estimate D2E/DX2                !
 ! D36   D(15,4,5,17)         -179.8639         estimate D2E/DX2                !
 --------------------------------------------------------------------------------
 Trust Radius=3.00D-01 FncErr=1.00D-07 GrdErr=1.00D-06 EigMax=2.50D+02 EigMin=1.00D-04
 Number of steps in this run=    102 maximum allowed number of steps=    102.
 GradGradGradGradGradGradGradGradGradGradGradGradGradGradGradGradGradGrad

                          Input orientation:                          
 ---------------------------------------------------------------------
 Center     Atomic      Atomic             Coordinates (Angstroms)
 Number     Number       Type             X           Y           Z
 ---------------------------------------------------------------------
      1          6           0        0.000000    0.000000    0.000000
      2          6           0        1.171000    0.975000   -0.220000
      3          6           0        1.752000    1.396000    1.143000
      4          6           0        2.194000    2.870000    1.079000
      5          6           0        3.468000    3.062000    1.921000
      6          1           0       -0.785000    0.244000   -0.653000
      7          1           0        0.322000   -0.981000   -0.190000
      8          1           0       -0.335000    0.073000    0.993000
      9          1           0        3.769000    4.067000    1.878000
     10          1           0        0.828000    1.825000   -0.731000
     11          1           0        1.917000    0.503000   -0.787000
     12          1           0        2.581000    0.793000    1.372000
     13          1           0        1.020000    1.283000    1.887000
     14          1           0        1.429000    3.482000    1.456000
     15          1           0        2.391000    3.132000    0.081000
     16          1           0        4.235000    2.452000    1.541000
     17          1           0        3.272000    2.798000    2.918000
 ---------------------------------------------------------------------
                    Distance matrix (angstroms):
                    1          2          3          4          5
     1  C    0.000000
     2  C    1.539567   0.000000
     3  C    2.514909   1.540315   0.000000
     4  C    3.770249   2.514946   1.540174   0.000000
     5  C    5.009302   3.770366   2.515054   1.539124   0.000000
     6  H    1.049843   2.132554   3.314979   4.332452   5.714421
     7  H    1.049831   2.132519   3.077648   4.465976   5.540712
     8  H    1.050525   2.133778   2.475560   3.771796   4.925253
     9  H    5.854292   4.551008   3.426770   2.133503   1.049988
    10  H    2.133207   1.049414   2.133001   2.496814   3.941177
    11  H    2.132432   1.049185   2.132973   3.026776   4.035758
    12  H    3.028662   2.134406   1.050377   2.132967   2.497305
    13  H    2.499452   2.134740   1.049823   2.133005   3.026335
    14  H    4.035629   3.026646   2.133939   1.049713   2.133107
    15  H    3.941176   2.496327   2.133040   1.050456   2.133173
    16  H    5.130518   3.830241   2.727422   2.133975   1.051089
    17  H    5.200915   4.193396   2.725184   2.132883   1.049820
                    6          7          8          9         10
     6  H    0.000000
     7  H    1.714772   0.000000
     8  H    1.714951   1.715242   0.000000
     9  H    6.462214   6.452963   5.794659   0.000000
    10  H    2.259959   2.902129   2.719237   4.525807   0.000000
    11  H    2.717690   2.258913   2.902551   4.820189   1.713692
    12  H    3.966356   3.269557   3.027391   3.519440   2.925857
    13  H    3.284684   3.150687   2.024688   3.912510   2.680401
    14  H    4.453574   4.883967   3.866180   2.448655   2.808882
    15  H    4.355029   4.612046   4.197654   2.449963   2.193299
    16  H    5.906717   5.485747   5.181201   1.714337   4.142796
    17  H    5.977809   5.713406   4.913420   1.714342   4.498340
                   11         12         13         14         15
    11  H    0.000000
    12  H    2.277340   0.000000
    13  H    2.926309   1.715239   0.000000
    14  H    3.760802   2.926582   2.277859   0.000000
    15  H    2.808868   2.678377   2.925761   1.714225   0.000000
    16  H    3.819857   2.348735   3.438387   2.990278   2.448333
    17  H    4.563998   2.624428   2.903393   2.449888   2.989362
                   16         17
    16  H    0.000000
    17  H    1.715580   0.000000
 Stoichiometry    C5H12
 Framework group  C1[X(C5H12)]
 Deg. of freedom    45
 Full point group                 C1      NOp   1
 Largest Abelian subgroup         C1      NOp   1
 Largest concise Abelian subgroup C1      NOp   1
                         Standard orientation:                         
 ---------------------------------------------------------------------
 Center     Atomic      Atomic             Coordinates (Angstroms)
 Number     Number       Type             X           Y           Z
 ---------------------------------------------------------------------
      1          6           0        2.500334   -0.208989   -0.148724
      2          6           0        1.205794    0.453398    0.356921
      3          6           0        0.000177   -0.436499    0.000350
      4          6           0       -1.205559    0.452497   -0.357452
      5          6           0       -2.500146   -0.208575    0.148447
      6          1           0        3.120676    0.520354   -0.579311
      7          1           0        2.998547   -0.661838    0.656792
      8          1           0        2.263659   -0.936684   -0.868479
      9          1           0       -3.322264    0.397076   -0.096060
     10          1           0        1.092617    1.392944   -0.096636
     11          1           0        1.257155    0.571273    1.398197
     12          1           0       -0.244628   -1.041363    0.823454
     13          1           0        0.242347   -1.043569   -0.821203
     14          1           0       -1.256486    0.571393   -1.399166
     15          1           0       -1.092181    1.393094    0.096287
     16          1           0       -2.450568   -0.324036    1.191999
     17          1           0       -2.612480   -1.149631   -0.303124
 ---------------------------------------------------------------------
 Rotational constants (GHZ):          16.7388986           2.0158358           1.9669685
 Standard basis: 6-31G(d) (6D, 7F)
 There are    99 symmetry adapted cartesian basis functions of A   symmetry.
 There are    99 symmetry adapted basis functions of A   symmetry.
    99 basis functions,   188 primitive gaussians,    99 cartesian basis functions
    21 alpha electrons       21 beta electrons
       nuclear repulsion energy       188.2592716775 Hartrees.
 NAtoms=   17 NActive=   17 NUniq=   17 SFac= 1.00D+00 NAtFMM=   60 NAOKFM=F Big=F
 Integral buffers will be    131072 words long.
 Raffenetti 2 integral format.
 Two-electron integral symmetry is turned on.
 Nuclear repulsion after empirical dispersion term =      188.2589823456 Hartrees.
 One-electron integrals computed using PRISM.
 NBasis=    99 RedAO= T EigKep=  3.86D-03  NBF=    99
 NBsUse=    99 1.00D-06 EigRej= -1.00D+00 NBFU=    99
 ExpMin= 1.61D-01 ExpMax= 3.05D+03 ExpMxC= 4.57D+02 IAcc=3 IRadAn=         5 AccDes= 0.00D+00
 Harris functional with IExCor= 1009 and IRadAn=       5 diagonalized for initial guess.
 HarFok:  IExCor= 1009 AccDes= 0.00D+00 IRadAn=         5 IDoV= 1 UseB2=F ITyADJ=14
 ICtDFT=  3500011 ScaDFX=  1.000000  1.000000  1.000000  1.000000
 FoFCou: FMM=F IPFlag=           0 FMFlag=      100000 FMFlg1=           0
         NFxFlg=           0 DoJE=T BraDBF=F KetDBF=T FulRan=T
         wScrn=  0.000000 ICntrl=       500 IOpCl=  0 I1Cent=   200000004 NGrid=           0
         NMat0=    1 NMatS0=      1 NMatT0=    0 NMatD0=    1 NMtDS0=    0 NMtDT0=    0
 Petite list used in FoFCou.
 Keep R1 ints in memory in canonical form, NReq=15944043.
 Requested convergence on RMS density matrix=1.00D-08 within 128 cycles.
 Requested convergence on MAX density matrix=1.00D-06.
 Requested convergence on             energy=1.00D-06.
 No special actions if energy rises.
 Integral accuracy reduced to 1.0D-05 until final iterations.
 Initial convergence to 1.0D-05 achieved.  Increase integral accuracy.
 SCF Done:  E(RM062X) =  -197.618039635     A.U. after   12 cycles
            NFock= 12  Conv=0.32D-08     -V/T= 2.0051

 **********************************************************************

            Population analysis using the SCF density.

 **********************************************************************

 Orbital symmetries:
       Occupied  (A) (A) (A) (A) (A) (A) (A) (A) (A) (A) (A) (A)
                 (A) (A) (A) (A) (A) (A) (A) (A) (A)
       Virtual   (A) (A) (A) (A) (A) (A) (A) (A) (A) (A) (A) (A)
                 (A) (A) (A) (A) (A) (A) (A) (A) (A) (A) (A) (A)
                 (A) (A) (A) (A) (A) (A) (A) (A) (A) (A) (A) (A)
                 (A) (A) (A) (A) (A) (A) (A) (A) (A) (A) (A) (A)
                 (A) (A) (A) (A) (A) (A) (A) (A) (A) (A) (A) (A)
                 (A) (A) (A) (A) (A) (A) (A) (A) (A) (A) (A) (A)
                 (A) (A) (A) (A) (A) (A)
 The electronic state is 1-A.
 Alpha  occ. eigenvalues --  -10.52001 -10.51939 -10.51737 -10.51097 -10.50924
 Alpha  occ. eigenvalues --   -0.90138  -0.84618  -0.76593  -0.68845  -0.66557
 Alpha  occ. eigenvalues --   -0.54459  -0.51859  -0.50793  -0.46464  -0.45012
 Alpha  occ. eigenvalues --   -0.44508  -0.40855  -0.40625  -0.38736  -0.38089
 Alpha  occ. eigenvalues --   -0.34679
 Alpha virt. eigenvalues --    0.14385   0.15911   0.17383   0.17951   0.21026
 Alpha virt. eigenvalues --    0.21875   0.23125   0.23718   0.24845   0.25945
 Alpha virt. eigenvalues --    0.26743   0.29048   0.29773   0.31102   0.33596
 Alpha virt. eigenvalues --    0.37045   0.55203   0.56426   0.58189   0.58923
 Alpha virt. eigenvalues --    0.60956   0.63166   0.67839   0.69815   0.71129
 Alpha virt. eigenvalues --    0.74439   0.77056   0.81938   0.84702   0.87581
 Alpha virt. eigenvalues --    0.90351   0.97038   0.98040   0.99005   1.00835
 Alpha virt. eigenvalues --    1.01419   1.01746   1.03345   1.06834   1.06936
 Alpha virt. eigenvalues --    1.07991   1.09593   1.10399   1.12719   1.25184
 Alpha virt. eigenvalues --    1.41064   1.46551   1.50811   1.59083   1.66684
 Alpha virt. eigenvalues --    1.77874   1.82225   1.83374   1.90811   1.98245
 Alpha virt. eigenvalues --    2.01296   2.04189   2.08553   2.10909   2.13189
 Alpha virt. eigenvalues --    2.22480   2.30253   2.31878   2.38989   2.42309
 Alpha virt. eigenvalues --    2.45263   2.47861   2.50706   2.55348   2.60045
 Alpha virt. eigenvalues --    2.66455   2.73460   2.80775   4.18057   4.25881
 Alpha virt. eigenvalues --    4.37747   4.49265   4.59742
          Condensed to atoms (all electrons):
               1          2          3          4          5          6
     1  C    5.108505   0.346925  -0.052789   0.004854  -0.000128   0.389412
     2  C    0.346925   5.040903   0.369515  -0.043949   0.004495  -0.033419
     3  C   -0.052789   0.369515   5.058926   0.366242  -0.051257   0.004481
     4  C    0.004854  -0.043949   0.366242   5.020823   0.366395  -0.000282
     5  C   -0.000128   0.004495  -0.051257   0.366395   5.082706   0.000002
     6  H    0.389412  -0.033419   0.004481  -0.000282   0.000002   0.537414
     7  H    0.389492  -0.032279   0.001747  -0.000075   0.000004  -0.026481
     8  H    0.398339  -0.044937  -0.012704   0.000361  -0.000014  -0.028957
     9  H    0.000003  -0.000204   0.005505  -0.033565   0.385418  -0.000000
    10  H   -0.040656   0.404617  -0.047625  -0.008275   0.000383  -0.008722
    11  H   -0.036032   0.393809  -0.034501   0.000559  -0.000257   0.002374
    12  H    0.002621  -0.037965   0.396517  -0.046493  -0.006566  -0.000136
    13  H   -0.012710  -0.043741   0.394996  -0.034659   0.000644   0.000629
    14  H   -0.000210   0.000171  -0.035359   0.392313  -0.036200   0.000010
    15  H    0.000346  -0.007432  -0.049585   0.401497  -0.038944   0.000005
    16  H   -0.000012  -0.000000  -0.006623  -0.037171   0.393831   0.000000
    17  H    0.000001   0.000120  -0.004262  -0.035450   0.391317   0.000000
               7          8          9         10         11         12
     1  C    0.389492   0.398339   0.000003  -0.040656  -0.036032   0.002621
     2  C   -0.032279  -0.044937  -0.000204   0.404617   0.393809  -0.037965
     3  C    0.001747  -0.012704   0.005505  -0.047625  -0.034501   0.396517
     4  C   -0.000075   0.000361  -0.033565  -0.008275   0.000559  -0.046493
     5  C    0.000004  -0.000014   0.385418   0.000383  -0.000257  -0.006566
     6  H   -0.026481  -0.028957  -0.000000  -0.008722   0.002374  -0.000136
     7  H    0.536145  -0.028434  -0.000000   0.004354  -0.009535   0.000057
     8  H   -0.028434   0.540494   0.000000   0.001843   0.004385   0.000439
     9  H   -0.000000   0.000000   0.546645   0.000001   0.000001   0.000405
    10  H    0.004354   0.001843   0.000001   0.558905  -0.033859   0.005059
    11  H   -0.009535   0.004385   0.000001  -0.033859   0.552604  -0.008790
    12  H    0.000057   0.000439   0.000405   0.005059  -0.008790   0.561457
    13  H    0.000137   0.008014  -0.000204   0.000752   0.004882  -0.033567
    14  H    0.000002  -0.000020  -0.002613   0.001955  -0.000088   0.005047
    15  H   -0.000007   0.000056  -0.003042   0.001968   0.001869   0.000685
    16  H    0.000000  -0.000000  -0.029189   0.000040   0.000034   0.005031
    17  H   -0.000000   0.000001  -0.029117  -0.000003   0.000009  -0.000197
              13         14         15         16         17
     1  C   -0.012710  -0.000210   0.000346  -0.000012   0.000001
     2  C   -0.043741   0.000171  -0.007432  -0.000000   0.000120
     3  C    0.394996  -0.035359  -0.049585  -0.006623  -0.004262
     4  C   -0.034659   0.392313   0.401497  -0.037171  -0.035450
     5  C    0.000644  -0.036200  -0.038944   0.393831   0.391317
     6  H    0.000629   0.000010   0.000005   0.000000   0.000000
     7  H    0.000137   0.000002  -0.000007   0.000000  -0.000000
     8  H    0.008014  -0.000020   0.000056  -0.000000   0.000001
     9  H   -0.000204  -0.002613  -0.003042  -0.029189  -0.029117
    10  H    0.000752   0.001955   0.001968   0.000040  -0.000003
    11  H    0.004882  -0.000088   0.001869   0.000034   0.000009
    12  H   -0.033567   0.005047   0.000685   0.005031  -0.000197
    13  H    0.561607  -0.008559   0.004995  -0.000036   0.001514
    14  H   -0.008559   0.557776  -0.034590   0.005131  -0.004576
    15  H    0.004995  -0.034590   0.563547  -0.004316   0.005222
    16  H   -0.000036   0.005131  -0.004316   0.543626  -0.030760
    17  H    0.001514  -0.004576   0.005222  -0.030760   0.544500
 Mulliken charges:
               1
     1  C   -0.497963
     2  C   -0.316628
     3  C   -0.303224
     4  C   -0.313126
     5  C   -0.491831
     6  H    0.163671
     7  H    0.164873
     8  H    0.161135
     9  H    0.159956
    10  H    0.159263
    11  H    0.162537
    12  H    0.156397
    13  H    0.155308
    14  H    0.159810
    15  H    0.157726
    16  H    0.160414
    17  H    0.161682
 Sum of Mulliken charges =  -0.00000
 Mulliken charges with hydrogens summed into heavy atoms:
               1
     1  C   -0.008283
     2  C    0.005172
     3  C    0.008481
     4  C    0.004410
     5  C   -0.009779
 Electronic spatial extent (au):  <R**2>=            684.3422
 Charge=             -0.0000 electrons
 Dipole moment (field-independent basis, Debye):
    X=              0.0246    Y=              0.0568    Z=              0.0158  Tot=              0.0639
 Quadrupole moment (field-independent basis, Debye-Ang):
   XX=            -35.8467   YY=            -34.4863   ZZ=            -33.7139
   XY=              0.0550   XZ=              0.3355   YZ=             -0.0134
 Traceless Quadrupole moment (field-independent basis, Debye-Ang):
   XX=             -1.1644   YY=              0.1960   ZZ=              0.9684
   XY=              0.0550   XZ=              0.3355   YZ=             -0.0134
 Octapole moment (field-independent basis, Debye-Ang**2):
  XXX=             -0.1030  YYY=              0.5089  ZZZ=              0.7460  XYY=              0.0256
  XXY=              1.9017  XXZ=              0.0403  XZZ=              0.3021  YZZ=             -0.6301
  YYZ=             -0.5798  XYZ=             -0.7093
 Hexadecapole moment (field-independent basis, Debye-Ang**3):
 XXXX=           -774.3334 YYYY=           -100.8018 ZZZZ=            -77.3433 XXXY=             -0.8680
 XXXZ=              5.7709 YYYX=              1.1255 YYYZ=              0.5598 ZZZX=              1.3465
 ZZZY=             -0.1568 XXYY=           -141.5654 XXZZ=           -137.6751 YYZZ=            -29.8192
 XXYZ=             -2.0154 YYXZ=             -0.3716 ZZXY=             -0.3112
 N-N= 1.882589823456D+02 E-N=-8.331981769012D+02  KE= 1.966166410503D+02
 Calling FoFJK, ICntrl=      2127 FMM=F ISym2X=0 I1Cent= 0 IOpClX= 0 NMat=1 NMatS=1 NMatT=0.
 ***** Axes restored to original set *****
 -------------------------------------------------------------------
 Center     Atomic                   Forces (Hartrees/Bohr)
 Number     Number              X              Y              Z
 -------------------------------------------------------------------
      1        6           0.027203292    0.020258265   -0.013518508
      2        6          -0.020750949   -0.019571729    0.046645412
      3        6          -0.000978807    0.033826558   -0.044172505
      4        6           0.030618970   -0.034856308    0.030881207
      5        6          -0.034115859    0.003190489   -0.023510401
      6        1          -0.026931589    0.002275778   -0.019392753
      7        1           0.004969298   -0.032559873   -0.003726724
      8        1          -0.014063513   -0.000453372    0.027891224
      9        1           0.013108375    0.031183904    0.001800806
     10        1          -0.009495044    0.026771804   -0.016942220
     11        1           0.023920046   -0.010339527   -0.021575847
     12        1           0.024509880   -0.020549435    0.010354998
     13        1          -0.019876222   -0.004690507    0.025429799
     14        1          -0.024953977    0.021430426    0.008177299
     15        1           0.005887925    0.010314286   -0.030648683
     16        1           0.024562374   -0.018060502   -0.010034211
     17        1          -0.003614200   -0.008170257    0.032341108
 -------------------------------------------------------------------
 Cartesian Forces:  Max     0.046645412 RMS     0.022316061

 GradGradGradGradGradGradGradGradGradGradGradGradGradGradGradGradGradGrad
 Berny optimization.
 FormGI is forming the generalized inverse of G from B-inverse, IUseBI=4.
 Internal  Forces:  Max     0.033617503 RMS     0.013360629
 Search for a local minimum.
 Step number   1 out of a maximum of  102
 All quantities printed in internal units (Hartrees-Bohrs-Radians)
 Mixed Optimization -- RFO/linear search
 Second derivative matrix not updated -- first step.
 ITU=  0
     Eigenvalues ---    0.00233   0.00235   0.00243   0.00248   0.03836
     Eigenvalues ---    0.03840   0.03841   0.04896   0.04897   0.04897
     Eigenvalues ---    0.05719   0.05722   0.05725   0.05730   0.07649
     Eigenvalues ---    0.07657   0.07667   0.11697   0.11702   0.11710
     Eigenvalues ---    0.16000   0.16000   0.16000   0.16000   0.16000
     Eigenvalues ---    0.16000   0.21947   0.21949   0.21949   0.28491
     Eigenvalues ---    0.28504   0.28557   0.28597   0.39726   0.39804
     Eigenvalues ---    0.39814   0.39825   0.39878   0.39898   0.39900
     Eigenvalues ---    0.39901   0.39902   0.39916   0.39958   0.39990
 RFO step:  Lambda=-3.81447289D-02 EMin= 2.32654356D-03
 Linear search not attempted -- first point.
 Maximum step size (   0.300) exceeded in Quadratic search.
    -- Step size scaled by   0.972
 Iteration  1 RMS(Cart)=  0.07592184 RMS(Int)=  0.00120522
 Iteration  2 RMS(Cart)=  0.00157125 RMS(Int)=  0.00023376
 Iteration  3 RMS(Cart)=  0.00000215 RMS(Int)=  0.00023375
 Iteration  4 RMS(Cart)=  0.00000000 RMS(Int)=  0.00023375
 Variable       Old X    -DE/DX   Delta X   Delta X   Delta X     New X
                                 (Linear)    (Quad)   (Total)
    R1        2.90936   0.01210   0.00000   0.03632   0.03632   2.94568
    R2        1.98392   0.03273   0.00000   0.07277   0.07277   2.05668
    R3        1.98389   0.03262   0.00000   0.07253   0.07253   2.05643
    R4        1.98520   0.03082   0.00000   0.06866   0.06866   2.05387
    R5        2.91077   0.00999   0.00000   0.03004   0.03004   2.94082
    R6        1.98311   0.03304   0.00000   0.07336   0.07336   2.05646
    R7        1.98267   0.03332   0.00000   0.07393   0.07393   2.05660
    R8        2.91051   0.00774   0.00000   0.02328   0.02328   2.93378
    R9        1.98492   0.03340   0.00000   0.07438   0.07438   2.05931
   R10        1.98388   0.03239   0.00000   0.07200   0.07200   2.05588
   R11        2.90852   0.00129   0.00000   0.00388   0.00388   2.91240
   R12        1.98367   0.03362   0.00000   0.07471   0.07471   2.05838
   R13        1.98507   0.03279   0.00000   0.07306   0.07306   2.05813
   R14        1.98419   0.03353   0.00000   0.07459   0.07459   2.05878
   R15        1.98627   0.03203   0.00000   0.07150   0.07150   2.05777
   R16        1.98387   0.03344   0.00000   0.07435   0.07435   2.05822
    A1        1.90992   0.00580   0.00000   0.02843   0.02804   1.93796
    A2        1.90988   0.00590   0.00000   0.02882   0.02844   1.93832
    A3        1.91093   0.00466   0.00000   0.02296   0.02262   1.93355
    A4        1.91129  -0.00590   0.00000  -0.02916  -0.02956   1.88173
    A5        1.91065  -0.00517   0.00000  -0.02516  -0.02549   1.88516
    A6        1.91114  -0.00527   0.00000  -0.02582  -0.02615   1.88499
    A7        1.91085   0.02038   0.00000   0.08578   0.08541   1.99627
    A8        1.91127  -0.00445   0.00000  -0.00597  -0.00653   1.90474
    A9        1.91042  -0.00549   0.00000  -0.01756  -0.01745   1.89297
   A10        1.91005  -0.00561   0.00000  -0.01514  -0.01616   1.89389
   A11        1.91025  -0.00613   0.00000  -0.02346  -0.02369   1.88656
   A12        1.91095   0.00130   0.00000  -0.02364  -0.02433   1.88662
   A13        1.91034   0.01430   0.00000   0.06148   0.06121   1.97155
   A14        1.91103  -0.00236   0.00000  -0.00127  -0.00126   1.90977
   A15        1.91207  -0.00423   0.00000  -0.01210  -0.01244   1.89963
   A16        1.90919  -0.00506   0.00000  -0.01954  -0.02000   1.88920
   A17        1.90981  -0.00295   0.00000  -0.00544  -0.00575   1.90407
   A18        1.91135   0.00030   0.00000  -0.02310  -0.02343   1.88792
   A19        1.91155   0.01101   0.00000   0.04751   0.04733   1.95889
   A20        1.91123  -0.00274   0.00000  -0.00762  -0.00761   1.90363
   A21        1.90922  -0.00227   0.00000  -0.00186  -0.00208   1.90714
   A22        1.91137  -0.00330   0.00000  -0.01249  -0.01262   1.89875
   A23        1.91070  -0.00286   0.00000  -0.00691  -0.00729   1.90342
   A24        1.90972   0.00015   0.00000  -0.01868  -0.01888   1.89084
   A25        1.91164   0.00602   0.00000   0.03114   0.03094   1.94258
   A26        1.91117   0.00116   0.00000   0.00485   0.00478   1.91595
   A27        1.91095   0.00221   0.00000   0.01009   0.00996   1.92091
   A28        1.90868  -0.00322   0.00000  -0.01426  -0.01442   1.89426
   A29        1.91040  -0.00374   0.00000  -0.01670  -0.01694   1.89346
   A30        1.91095  -0.00244   0.00000  -0.01517  -0.01516   1.89579
    D1        2.40397   0.00128   0.00000   0.02545   0.02558   2.42956
    D2        0.30976  -0.00162   0.00000  -0.00494  -0.00510   0.30466
    D3       -1.78528   0.00288   0.00000   0.03847   0.03844  -1.74684
    D4       -1.78492   0.00121   0.00000   0.02474   0.02491  -1.76001
    D5        2.40406  -0.00169   0.00000  -0.00565  -0.00578   2.39828
    D6        0.30901   0.00281   0.00000   0.03775   0.03777   0.34678
    D7        0.30982   0.00121   0.00000   0.02482   0.02497   0.33479
    D8       -1.78439  -0.00168   0.00000  -0.00557  -0.00572  -1.79011
    D9        2.40375   0.00282   0.00000   0.03783   0.03783   2.44158
   D10       -2.51341  -0.00239   0.00000  -0.04283  -0.04279  -2.55620
   D11        1.67708  -0.00350   0.00000  -0.05574  -0.05594   1.62114
   D12       -0.41932   0.00019   0.00000  -0.01917  -0.01927  -0.43858
   D13       -0.41845   0.00120   0.00000  -0.00691  -0.00691  -0.42537
   D14       -2.51115   0.00009   0.00000  -0.01981  -0.02006  -2.53121
   D15        1.67564   0.00378   0.00000   0.01675   0.01661   1.69225
   D16        1.67574  -0.00438   0.00000  -0.05944  -0.05910   1.61665
   D17       -0.41695  -0.00549   0.00000  -0.07235  -0.07224  -0.48920
   D18       -2.51335  -0.00180   0.00000  -0.03578  -0.03557  -2.54892
   D19       -2.51352  -0.00176   0.00000  -0.03292  -0.03280  -2.54633
   D20        1.67343  -0.00280   0.00000  -0.04213  -0.04199   1.63143
   D21       -0.41935   0.00008   0.00000  -0.01349  -0.01327  -0.43262
   D22       -0.41970   0.00099   0.00000  -0.00890  -0.00910  -0.42880
   D23       -2.51593  -0.00005   0.00000  -0.01812  -0.01829  -2.53422
   D24        1.67448   0.00282   0.00000   0.01053   0.01043   1.68491
   D25        1.67419  -0.00353   0.00000  -0.05239  -0.05244   1.62175
   D26       -0.42204  -0.00456   0.00000  -0.06161  -0.06163  -0.48367
   D27       -2.51482  -0.00169   0.00000  -0.03297  -0.03291  -2.54773
   D28       -3.14087   0.00039   0.00000   0.00624   0.00626  -3.13461
   D29        1.04936  -0.00006   0.00000   0.00166   0.00165   1.05102
   D30       -1.04595   0.00086   0.00000   0.01108   0.01118  -1.03477
   D31       -1.04472   0.00177   0.00000   0.01844   0.01835  -1.02637
   D32       -3.13767   0.00132   0.00000   0.01385   0.01374  -3.12393
   D33        1.05020   0.00225   0.00000   0.02327   0.02327   1.07347
   D34        1.04905  -0.00182   0.00000  -0.01633  -0.01632   1.03273
   D35       -1.04390  -0.00227   0.00000  -0.02091  -0.02093  -1.06483
   D36       -3.13922  -0.00135   0.00000  -0.01149  -0.01139   3.13257
         Item               Value     Threshold  Converged?
 Maximum Force            0.033618     0.000450     NO 
 RMS     Force            0.013361     0.000300     NO 
 Maximum Displacement     0.221504     0.001800     NO 
 RMS     Displacement     0.075338     0.001200     NO 
 Predicted change in Energy=-2.144844D-02
 GradGradGradGradGradGradGradGradGradGradGradGradGradGradGradGradGradGrad

                          Input orientation:                          
 ---------------------------------------------------------------------
 Center     Atomic      Atomic             Coordinates (Angstroms)
 Number     Number       Type             X           Y           Z
 ---------------------------------------------------------------------
      1          6           0       -0.050018   -0.063430   -0.042760
      2          6           0        1.118256    0.955809   -0.204310
      3          6           0        1.754534    1.421498    1.137361
      4          6           0        2.246073    2.893535    1.095809
      5          6           0        3.513907    3.109248    1.945097
      6          1           0       -0.860214    0.158033   -0.734888
      7          1           0        0.287337   -1.079219   -0.239158
      8          1           0       -0.452215   -0.032289    0.966464
      9          1           0        3.841280    4.147790    1.910812
     10          1           0        0.755615    1.832486   -0.737393
     11          1           0        1.898441    0.493218   -0.805748
     12          1           0        2.605871    0.784149    1.375146
     13          1           0        1.018363    1.314376    1.931184
     14          1           0        1.456852    3.543025    1.472316
     15          1           0        2.457044    3.173071    0.064537
     16          1           0        4.319709    2.479788    1.570634
     17          1           0        3.318165    2.842913    2.982898
 ---------------------------------------------------------------------
                    Distance matrix (angstroms):
                    1          2          3          4          5
     1  C    0.000000
     2  C    1.558784   0.000000
     3  C    2.618034   1.556213   0.000000
     4  C    3.913056   2.591730   1.552491   0.000000
     5  C    5.169044   3.872518   2.568332   1.541177   0.000000
     6  H    1.088350   2.198250   3.455223   4.525863   5.918186
     7  H    1.088214   2.198404   3.209526   4.626182   5.720575
     8  H    1.086861   2.193952   2.648101   3.982201   5.153357
     9  H    6.057476   4.698654   3.519290   2.186795   1.089458
    10  H    2.173950   1.088232   2.163667   2.589965   4.053893
    11  H    2.165294   1.088305   2.158260   3.081929   4.125590
    12  H    3.127714   2.176499   1.089739   2.158007   2.560363
    13  H    2.633675   2.167691   1.087924   2.167687   3.074003
    14  H    4.191972   3.101518   2.168337   1.089250   2.154799
    15  H    4.095339   2.604013   2.170824   1.089115   2.158133
    16  H    5.307119   3.965129   2.808528   2.167167   1.088926
    17  H    5.380157   4.308023   2.805596   2.170956   1.089165
                    6          7          8          9         10
     6  H    0.000000
     7  H    1.758811   0.000000
     8  H    1.759911   1.759695   0.000000
     9  H    6.709839   6.676415   6.066214   0.000000
    10  H    2.326952   2.990912   2.799887   4.679204   0.000000
    11  H    2.779847   2.321474   2.990398   4.950780   1.761921
    12  H    4.105851   3.384334   3.191470   3.623155   2.997546
    13  H    3.460365   3.312715   2.215127   3.999689   2.731077
    14  H    4.658189   5.065773   4.084518   2.498703   2.881058
    15  H    4.553431   4.783495   4.421717   2.504979   2.309787
    16  H    6.126792   5.674672   5.426491   1.768289   4.295201
    17  H    6.203980   5.911911   5.152528   1.767971   4.629059
                   11         12         13         14         15
    11  H    0.000000
    12  H    2.311146   0.000000
    13  H    2.989923   1.763661   0.000000
    14  H    3.832219   2.990165   2.317264   0.000000
    15  H    2.872463   2.728881   3.001487   1.766095   0.000000
    16  H    3.931436   2.418811   3.519527   3.055501   2.493690
    17  H    4.678731   2.707534   2.954931   2.497298   3.060615
                   16         17
    16  H    0.000000
    17  H    1.769023   0.000000
 Stoichiometry    C5H12
 Framework group  C1[X(C5H12)]
 Deg. of freedom    45
 Full point group                 C1      NOp   1
 Largest Abelian subgroup         C1      NOp   1
 Largest concise Abelian subgroup C1      NOp   1
                         Standard orientation:                         
 ---------------------------------------------------------------------
 Center     Atomic      Atomic             Coordinates (Angstroms)
 Number     Number       Type             X           Y           Z
 ---------------------------------------------------------------------
      1          6           0        2.592975   -0.199953   -0.134730
      2          6           0        1.245534    0.428808    0.333107
      3          6           0       -0.013318   -0.417074   -0.015566
      4          6           0       -1.260321    0.453302   -0.328068
      5          6           0       -2.568688   -0.212476    0.141123
      6          1           0        3.259396    0.559960   -0.538364
      7          1           0        3.105450   -0.686712    0.692702
      8          1           0        2.423293   -0.943674   -0.908910
      9          1           0       -3.433824    0.407389   -0.091743
     10          1           0        1.135899    1.413332   -0.117384
     11          1           0        1.280256    0.553483    1.413689
     12          1           0       -0.254569   -1.070233    0.822713
     13          1           0        0.210515   -1.040950   -0.878269
     14          1           0       -1.317461    0.620297   -1.402923
     15          1           0       -1.156704    1.419494    0.163772
     16          1           0       -2.536010   -0.370645    1.218005
     17          1           0       -2.693332   -1.177376   -0.348481
 ---------------------------------------------------------------------
 Rotational constants (GHZ):          16.8619666           1.8890211           1.8452581
 Standard basis: 6-31G(d) (6D, 7F)
 There are    99 symmetry adapted cartesian basis functions of A   symmetry.
 There are    99 symmetry adapted basis functions of A   symmetry.
    99 basis functions,   188 primitive gaussians,    99 cartesian basis functions
    21 alpha electrons       21 beta electrons
       nuclear repulsion energy       183.6845304445 Hartrees.
 NAtoms=   17 NActive=   17 NUniq=   17 SFac= 1.00D+00 NAtFMM=   60 NAOKFM=F Big=F
 Integral buffers will be    131072 words long.
 Raffenetti 2 integral format.
 Two-electron integral symmetry is turned on.
 Nuclear repulsion after empirical dispersion term =      183.6842334062 Hartrees.
 One-electron integrals computed using PRISM.
 NBasis=    99 RedAO= T EigKep=  4.17D-03  NBF=    99
 NBsUse=    99 1.00D-06 EigRej= -1.00D+00 NBFU=    99
 Initial guess from the checkpoint file:  "pentane_18.chk"
 B after Tr=     0.000000    0.000000   -0.000000
         Rot=    0.999941   -0.010872    0.000201   -0.000691 Ang=  -1.25 deg.
 ExpMin= 1.61D-01 ExpMax= 3.05D+03 ExpMxC= 4.57D+02 IAcc=2 IRadAn=         4 AccDes= 0.00D+00
 Harris functional with IExCor= 1009 and IRadAn=       4 diagonalized for initial guess.
 HarFok:  IExCor= 1009 AccDes= 0.00D+00 IRadAn=         4 IDoV= 1 UseB2=F ITyADJ=14
 ICtDFT=  3500011 ScaDFX=  1.000000  1.000000  1.000000  1.000000
 FoFCou: FMM=F IPFlag=           0 FMFlag=      100000 FMFlg1=           0
         NFxFlg=           0 DoJE=T BraDBF=F KetDBF=T FulRan=T
         wScrn=  0.000000 ICntrl=       500 IOpCl=  0 I1Cent=   200000004 NGrid=           0
         NMat0=    1 NMatS0=      1 NMatT0=    0 NMatD0=    1 NMtDS0=    0 NMtDT0=    0
 Petite list used in FoFCou.
 Keep R1 ints in memory in canonical form, NReq=15944043.
 Requested convergence on RMS density matrix=1.00D-08 within 128 cycles.
 Requested convergence on MAX density matrix=1.00D-06.
 Requested convergence on             energy=1.00D-06.
 No special actions if energy rises.
 Integral accuracy reduced to 1.0D-05 until final iterations.
 Initial convergence to 1.0D-05 achieved.  Increase integral accuracy.
 SCF Done:  E(RM062X) =  -197.637980056     A.U. after   11 cycles
            NFock= 11  Conv=0.44D-08     -V/T= 2.0092
 Calling FoFJK, ICntrl=      2127 FMM=F ISym2X=0 I1Cent= 0 IOpClX= 0 NMat=1 NMatS=1 NMatT=0.
 ***** Axes restored to original set *****
 -------------------------------------------------------------------
 Center     Atomic                   Forces (Hartrees/Bohr)
 Number     Number              X              Y              Z
 -------------------------------------------------------------------
      1        6           0.012174121    0.008057359   -0.002679019
      2        6          -0.006674969   -0.006448729    0.014722075
      3        6          -0.001204145    0.008396985   -0.013891062
      4        6           0.007835118   -0.011064009    0.008294266
      5        6          -0.011068137   -0.000703686   -0.006512400
      6        1          -0.002233793   -0.000396309   -0.002323012
      7        1           0.000151236   -0.003654373    0.000915826
      8        1          -0.003020963    0.000113941    0.003921245
      9        1           0.001260085    0.002569575    0.000536069
     10        1          -0.001147248    0.003371902   -0.002687487
     11        1           0.002493635    0.002484772   -0.005954518
     12        1           0.001182248   -0.004727567    0.002819838
     13        1          -0.001065836   -0.001387884    0.005681508
     14        1          -0.003670178    0.003778200   -0.002677654
     15        1           0.000271489    0.002414800   -0.004126549
     16        1           0.003686679   -0.001803614    0.000094392
     17        1           0.001030656   -0.001001364    0.003866485
 -------------------------------------------------------------------
 Cartesian Forces:  Max     0.014722075 RMS     0.005405847

 GradGradGradGradGradGradGradGradGradGradGradGradGradGradGradGradGradGrad
 Berny optimization.
 Using GEDIIS/GDIIS optimizer.
 FormGI is forming the generalized inverse of G from B-inverse, IUseBI=4.
 Internal  Forces:  Max     0.008010412 RMS     0.002342655
 Search for a local minimum.
 Step number   2 out of a maximum of  102
 All quantities printed in internal units (Hartrees-Bohrs-Radians)
 Mixed Optimization -- RFO/linear search
 Update second derivatives using D2CorX and points    1    2
 DE= -1.99D-02 DEPred=-2.14D-02 R= 9.30D-01
 TightC=F SS=  1.41D+00  RLast= 3.54D-01 DXNew= 5.0454D-01 1.0618D+00
 Trust test= 9.30D-01 RLast= 3.54D-01 DXMaxT set to 5.05D-01
 ITU=  1  0
 Use linear search instead of GDIIS.
     Eigenvalues ---    0.00233   0.00235   0.00243   0.00248   0.03342
     Eigenvalues ---    0.03463   0.03542   0.04765   0.04783   0.04798
     Eigenvalues ---    0.05438   0.05458   0.05481   0.05637   0.08142
     Eigenvalues ---    0.08261   0.08494   0.12075   0.12168   0.12335
     Eigenvalues ---    0.15853   0.16000   0.16000   0.16000   0.16000
     Eigenvalues ---    0.16075   0.21969   0.21991   0.22925   0.28383
     Eigenvalues ---    0.28498   0.28528   0.28802   0.39226   0.39738
     Eigenvalues ---    0.39810   0.39823   0.39864   0.39887   0.39899
     Eigenvalues ---    0.39901   0.39913   0.39947   0.39982   0.40833
 RFO step:  Lambda=-5.43833547D-03 EMin= 2.33289912D-03
 Quartic linear search produced a step of  0.13700.
 Iteration  1 RMS(Cart)=  0.11365774 RMS(Int)=  0.00537195
 Iteration  2 RMS(Cart)=  0.00932986 RMS(Int)=  0.00005377
 Iteration  3 RMS(Cart)=  0.00004879 RMS(Int)=  0.00004791
 Iteration  4 RMS(Cart)=  0.00000000 RMS(Int)=  0.00004791
 Variable       Old X    -DE/DX   Delta X   Delta X   Delta X     New X
                                 (Linear)    (Quad)   (Total)
    R1        2.94568  -0.00801   0.00498  -0.03507  -0.03009   2.91558
    R2        2.05668   0.00306   0.00997  -0.00006   0.00991   2.06659
    R3        2.05643   0.00329   0.00994   0.00061   0.01055   2.06698
    R4        2.05387   0.00476   0.00941   0.00516   0.01457   2.06844
    R5        2.94082  -0.00687   0.00412  -0.03000  -0.02588   2.91493
    R6        2.05646   0.00442   0.01005   0.00360   0.01365   2.07011
    R7        2.05660   0.00402   0.01013   0.00244   0.01257   2.06917
    R8        2.93378  -0.00570   0.00319  -0.02469  -0.02150   2.91228
    R9        2.05931   0.00430   0.01019   0.00322   0.01341   2.07271
   R10        2.05588   0.00500   0.00986   0.00541   0.01527   2.07115
   R11        2.91240  -0.00543   0.00053  -0.02132  -0.02079   2.89161
   R12        2.05838   0.00399   0.01024   0.00227   0.01251   2.07089
   R13        2.05813   0.00458   0.01001   0.00414   0.01415   2.07228
   R14        2.05878   0.00281   0.01022  -0.00096   0.00926   2.06804
   R15        2.05777   0.00374   0.00980   0.00201   0.01180   2.06958
   R16        2.05822   0.00374   0.01019   0.00164   0.01183   2.07005
    A1        1.93796   0.00042   0.00384  -0.00029   0.00348   1.94144
    A2        1.93832   0.00149   0.00390   0.00751   0.01132   1.94963
    A3        1.93355   0.00089   0.00310   0.00269   0.00573   1.93928
    A4        1.88173  -0.00086  -0.00405  -0.00100  -0.00513   1.87659
    A5        1.88516  -0.00082  -0.00349  -0.00382  -0.00735   1.87780
    A6        1.88499  -0.00127  -0.00358  -0.00562  -0.00928   1.87571
    A7        1.99627  -0.00200   0.01170  -0.01348  -0.00187   1.99440
    A8        1.90474   0.00104  -0.00089   0.00912   0.00814   1.91288
    A9        1.89297   0.00109  -0.00239   0.01267   0.01027   1.90324
   A10        1.89389   0.00084  -0.00221   0.00775   0.00538   1.89927
   A11        1.88656   0.00095  -0.00325   0.01147   0.00816   1.89471
   A12        1.88662  -0.00197  -0.00333  -0.02912  -0.03251   1.85411
   A13        1.97155  -0.00132   0.00839  -0.00701   0.00127   1.97283
   A14        1.90977   0.00073  -0.00017   0.00738   0.00716   1.91693
   A15        1.89963   0.00064  -0.00170   0.00685   0.00507   1.90470
   A16        1.88920   0.00088  -0.00274   0.01152   0.00868   1.89787
   A17        1.90407   0.00086  -0.00079   0.00892   0.00807   1.91214
   A18        1.88792  -0.00184  -0.00321  -0.02899  -0.03220   1.85572
   A19        1.95889  -0.00026   0.00648  -0.00024   0.00614   1.96502
   A20        1.90363   0.00030  -0.00104   0.00477   0.00366   1.90729
   A21        1.90714   0.00031  -0.00028   0.00449   0.00411   1.91125
   A22        1.89875   0.00056  -0.00173   0.00879   0.00700   1.90575
   A23        1.90342   0.00057  -0.00100   0.00847   0.00738   1.91079
   A24        1.89084  -0.00155  -0.00259  -0.02746  -0.03004   1.86080
   A25        1.94258   0.00033   0.00424  -0.00106   0.00312   1.94570
   A26        1.91595   0.00188   0.00065   0.01228   0.01287   1.92882
   A27        1.92091   0.00182   0.00137   0.01078   0.01208   1.93300
   A28        1.89426  -0.00108  -0.00198  -0.00483  -0.00686   1.88741
   A29        1.89346  -0.00115  -0.00232  -0.00599  -0.00836   1.88510
   A30        1.89579  -0.00193  -0.00208  -0.01192  -0.01407   1.88172
    D1        2.42956   0.00049   0.00351   0.08933   0.09284   2.52240
    D2        0.30466   0.00000  -0.00070   0.08175   0.08101   0.38567
    D3       -1.74684   0.00117   0.00527   0.10434   0.10961  -1.63723
    D4       -1.76001   0.00067   0.00341   0.09287   0.09630  -1.66370
    D5        2.39828   0.00019  -0.00079   0.08529   0.08447   2.48275
    D6        0.34678   0.00136   0.00517   0.10788   0.11307   0.45986
    D7        0.33479   0.00066   0.00342   0.09254   0.09598   0.43077
    D8       -1.79011   0.00017  -0.00078   0.08496   0.08415  -1.70595
    D9        2.44158   0.00134   0.00518   0.10755   0.11276   2.55433
   D10       -2.55620  -0.00100  -0.00586  -0.14952  -0.15537  -2.71157
   D11        1.62114  -0.00176  -0.00766  -0.16472  -0.17242   1.44873
   D12       -0.43858  -0.00032  -0.00264  -0.13798  -0.14062  -0.57921
   D13       -0.42537  -0.00040  -0.00095  -0.14113  -0.14207  -0.56744
   D14       -2.53121  -0.00115  -0.00275  -0.15633  -0.15912  -2.69033
   D15        1.69225   0.00028   0.00228  -0.12959  -0.12732   1.56492
   D16        1.61665  -0.00177  -0.00810  -0.16522  -0.17327   1.44338
   D17       -0.48920  -0.00252  -0.00990  -0.18041  -0.19032  -0.67951
   D18       -2.54892  -0.00109  -0.00487  -0.15368  -0.15852  -2.70745
   D19       -2.54633  -0.00105  -0.00449  -0.14294  -0.14742  -2.69375
   D20        1.63143  -0.00180  -0.00575  -0.15708  -0.16283   1.46861
   D21       -0.43262  -0.00029  -0.00182  -0.12930  -0.13109  -0.56371
   D22       -0.42880  -0.00038  -0.00125  -0.13011  -0.13137  -0.56017
   D23       -2.53422  -0.00112  -0.00251  -0.14425  -0.14677  -2.68099
   D24        1.68491   0.00039   0.00143  -0.11647  -0.11503   1.56988
   D25        1.62175  -0.00161  -0.00718  -0.15331  -0.16051   1.46124
   D26       -0.48367  -0.00235  -0.00844  -0.16745  -0.17591  -0.65959
   D27       -2.54773  -0.00084  -0.00451  -0.13967  -0.14417  -2.69190
   D28       -3.13461   0.00014   0.00086   0.01334   0.01421  -3.12040
   D29        1.05102   0.00004   0.00023   0.01196   0.01220   1.06321
   D30       -1.03477   0.00012   0.00153   0.01231   0.01384  -1.02093
   D31       -1.02637   0.00074   0.00251   0.02514   0.02767  -0.99870
   D32       -3.12393   0.00063   0.00188   0.02376   0.02566  -3.09827
   D33        1.07347   0.00071   0.00319   0.02411   0.02730   1.10077
   D34        1.03273  -0.00048  -0.00224   0.00201  -0.00025   1.03248
   D35       -1.06483  -0.00058  -0.00287   0.00062  -0.00226  -1.06709
   D36        3.13257  -0.00050  -0.00156   0.00097  -0.00061   3.13196
         Item               Value     Threshold  Converged?
 Maximum Force            0.008010     0.000450     NO 
 RMS     Force            0.002343     0.000300     NO 
 Maximum Displacement     0.352993     0.001800     NO 
 RMS     Displacement     0.112111     0.001200     NO 
 Predicted change in Energy=-3.826504D-03
 GradGradGradGradGradGradGradGradGradGradGradGradGradGradGradGradGradGrad

                          Input orientation:                          
 ---------------------------------------------------------------------
 Center     Atomic      Atomic             Coordinates (Angstroms)
 Number     Number       Type             X           Y           Z
 ---------------------------------------------------------------------
      1          6           0       -0.015073   -0.092909   -0.015039
      2          6           0        1.039262    1.017847   -0.202174
      3          6           0        1.750365    1.442788    1.099022
      4          6           0        2.311187    2.876978    1.039010
      5          6           0        3.494961    3.085253    1.985972
      6          1           0       -0.865562    0.050907   -0.687294
      7          1           0        0.401031   -1.083937   -0.217797
      8          1           0       -0.400869   -0.101779    1.009251
      9          1           0        3.865017    4.114315    1.944589
     10          1           0        0.568820    1.899066   -0.651801
     11          1           0        1.795201    0.676250   -0.916875
     12          1           0        2.573625    0.751285    1.316069
     13          1           0        1.048128    1.358176    1.936239
     14          1           0        1.516538    3.587196    1.294065
     15          1           0        2.619522    3.106902    0.012074
     16          1           0        4.320104    2.415296    1.721967
     17          1           0        3.206745    2.870366    3.020724
 ---------------------------------------------------------------------
                    Distance matrix (angstroms):
                    1          2          3          4          5
     1  C    0.000000
     2  C    1.542861   0.000000
     3  C    2.591576   1.542515   0.000000
     4  C    3.916980   2.571906   1.541112   0.000000
     5  C    5.140535   3.884921   2.554993   1.530176   0.000000
     6  H    1.093591   2.190586   3.459961   4.588958   5.947081
     7  H    1.093796   2.196606   3.152626   4.573523   5.640138
     8  H    1.094571   2.189769   2.649821   4.028539   5.127246
     9  H    6.049460   4.709735   3.510526   2.182994   1.094359
    10  H    2.171258   1.095458   2.160930   2.617441   4.114267
    11  H    2.163794   1.094957   2.157181   2.989136   4.137512
    12  H    3.030820   2.174946   1.096833   2.159677   2.597121
    13  H    2.653965   2.165344   1.096006   2.169584   2.995373
    14  H    4.195564   3.011325   2.165919   1.095869   2.155189
    15  H    4.144951   2.628170   2.169370   1.096601   2.159430
    16  H    5.301136   4.052050   2.817338   2.171481   1.095173
    17  H    5.327004   4.303125   2.802136   2.174686   1.095425
                    6          7          8          9         10
     6  H    0.000000
     7  H    1.764244   0.000000
     8  H    1.765649   1.764462   0.000000
     9  H    6.768787   6.610366   6.070262   0.000000
    10  H    2.339744   3.019076   2.775386   4.744838   0.000000
    11  H    2.742886   2.351739   3.022914   4.928733   1.752015
    12  H    4.041287   3.231247   3.109577   3.656870   3.034659
    13  H    3.500584   3.320019   2.256185   3.940968   2.687052
    14  H    4.701651   5.034835   4.167266   2.493269   2.744876
    15  H    4.687647   4.747387   4.518048   2.510130   2.470825
    16  H    6.187569   5.600576   5.397334   1.772944   4.469161
    17  H    6.187280   5.830658   5.088669   1.771665   4.624880
                   11         12         13         14         15
    11  H    0.000000
    12  H    2.365927   0.000000
    13  H    3.027111   1.755013   0.000000
    14  H    3.665994   3.026600   2.366500   0.000000
    15  H    2.729565   2.692850   3.038047   1.758055   0.000000
    16  H    4.045109   2.446195   3.445176   3.068621   2.508792
    17  H    4.723483   2.792346   2.849992   2.520317   3.074534
                   16         17
    16  H    0.000000
    17  H    1.770149   0.000000
 Stoichiometry    C5H12
 Framework group  C1[X(C5H12)]
 Deg. of freedom    45
 Full point group                 C1      NOp   1
 Largest Abelian subgroup         C1      NOp   1
 Largest concise Abelian subgroup C1      NOp   1
                         Standard orientation:                         
 ---------------------------------------------------------------------
 Center     Atomic      Atomic             Coordinates (Angstroms)
 Number     Number       Type             X           Y           Z
 ---------------------------------------------------------------------
      1          6           0        2.577611   -0.248981   -0.099474
      2          6           0        1.255602    0.466091    0.248930
      3          6           0       -0.009391   -0.376671   -0.013553
      4          6           0       -1.267779    0.481516   -0.248070
      5          6           0       -2.558664   -0.258180    0.109568
      6          1           0        3.314175    0.453198   -0.499922
      7          1           0        3.022026   -0.727658    0.777883
      8          1           0        2.418427   -1.026854   -0.852907
      9          1           0       -3.441156    0.359437   -0.083768
     10          1           0        1.182205    1.399964   -0.318978
     11          1           0        1.271325    0.751124    1.306020
     12          1           0       -0.192924   -1.046646    0.835265
     13          1           0        0.162453   -1.021194   -0.883202
     14          1           0       -1.306912    0.786465   -1.299927
     15          1           0       -1.198272    1.402529    0.343064
     16          1           0       -2.561527   -0.534737    1.169243
     17          1           0       -2.654093   -1.178274   -0.477183
 ---------------------------------------------------------------------
 Rotational constants (GHZ):          17.0466880           1.9094668           1.8434951
 Standard basis: 6-31G(d) (6D, 7F)
 There are    99 symmetry adapted cartesian basis functions of A   symmetry.
 There are    99 symmetry adapted basis functions of A   symmetry.
    99 basis functions,   188 primitive gaussians,    99 cartesian basis functions
    21 alpha electrons       21 beta electrons
       nuclear repulsion energy       184.1052330860 Hartrees.
 NAtoms=   17 NActive=   17 NUniq=   17 SFac= 1.00D+00 NAtFMM=   60 NAOKFM=F Big=F
 Integral buffers will be    131072 words long.
 Raffenetti 2 integral format.
 Two-electron integral symmetry is turned on.
 Nuclear repulsion after empirical dispersion term =      184.1049383179 Hartrees.
 One-electron integrals computed using PRISM.
 NBasis=    99 RedAO= T EigKep=  3.99D-03  NBF=    99
 NBsUse=    99 1.00D-06 EigRej= -1.00D+00 NBFU=    99
 Initial guess from the checkpoint file:  "pentane_18.chk"
 B after Tr=    -0.000000   -0.000000    0.000000
         Rot=    0.999999   -0.001442    0.000221    0.000291 Ang=  -0.17 deg.
 ExpMin= 1.61D-01 ExpMax= 3.05D+03 ExpMxC= 4.57D+02 IAcc=2 IRadAn=         4 AccDes= 0.00D+00
 Harris functional with IExCor= 1009 and IRadAn=       4 diagonalized for initial guess.
 HarFok:  IExCor= 1009 AccDes= 0.00D+00 IRadAn=         4 IDoV= 1 UseB2=F ITyADJ=14
 ICtDFT=  3500011 ScaDFX=  1.000000  1.000000  1.000000  1.000000
 FoFCou: FMM=F IPFlag=           0 FMFlag=      100000 FMFlg1=           0
         NFxFlg=           0 DoJE=T BraDBF=F KetDBF=T FulRan=T
         wScrn=  0.000000 ICntrl=       500 IOpCl=  0 I1Cent=   200000004 NGrid=           0
         NMat0=    1 NMatS0=      1 NMatT0=    0 NMatD0=    1 NMtDS0=    0 NMtDT0=    0
 Petite list used in FoFCou.
 Keep R1 ints in memory in canonical form, NReq=15944043.
 Requested convergence on RMS density matrix=1.00D-08 within 128 cycles.
 Requested convergence on MAX density matrix=1.00D-06.
 Requested convergence on             energy=1.00D-06.
 No special actions if energy rises.
 Integral accuracy reduced to 1.0D-05 until final iterations.
 Initial convergence to 1.0D-05 achieved.  Increase integral accuracy.
 SCF Done:  E(RM062X) =  -197.642674622     A.U. after   11 cycles
            NFock= 11  Conv=0.44D-08     -V/T= 2.0095
 Calling FoFJK, ICntrl=      2127 FMM=F ISym2X=0 I1Cent= 0 IOpClX= 0 NMat=1 NMatS=1 NMatT=0.
 ***** Axes restored to original set *****
 -------------------------------------------------------------------
 Center     Atomic                   Forces (Hartrees/Bohr)
 Number     Number              X              Y              Z
 -------------------------------------------------------------------
      1        6           0.003086777    0.001639996   -0.000661931
      2        6          -0.001239803   -0.001701869    0.004543156
      3        6           0.000019906    0.002002941   -0.004468425
      4        6           0.001414158   -0.003930293    0.002163523
      5        6          -0.002223242    0.000256210   -0.000975961
      6        1           0.000508413   -0.001051248   -0.000511228
      7        1           0.000136037   -0.000077069    0.001338537
      8        1          -0.000963792    0.000612748   -0.000384775
      9        1           0.000091389   -0.000379597    0.000363251
     10        1          -0.001132369    0.000941754    0.001224260
     11        1           0.000079132    0.002411874   -0.001968854
     12        1          -0.000581734   -0.001799886   -0.000054610
     13        1           0.000509995    0.000901293    0.001432195
     14        1          -0.000933864    0.000286856   -0.002044019
     15        1           0.000732613   -0.000360390   -0.000383859
     16        1           0.000101424    0.000319900    0.000399989
     17        1           0.000394959   -0.000073223   -0.000011249
 -------------------------------------------------------------------
 Cartesian Forces:  Max     0.004543156 RMS     0.001543031

 GradGradGradGradGradGradGradGradGradGradGradGradGradGradGradGradGradGrad
 Berny optimization.
 Using GEDIIS/GDIIS optimizer.
 FormGI is forming the generalized inverse of G from B-inverse, IUseBI=4.
 Internal  Forces:  Max     0.004002064 RMS     0.000938251
 Search for a local minimum.
 Step number   3 out of a maximum of  102
 All quantities printed in internal units (Hartrees-Bohrs-Radians)
 Mixed Optimization -- En-DIIS/RFO-DIIS
 Update second derivatives using D2CorX and points    2    3
 DE= -4.69D-03 DEPred=-3.83D-03 R= 1.23D+00
 TightC=F SS=  1.41D+00  RLast= 7.20D-01 DXNew= 8.4853D-01 2.1608D+00
 Trust test= 1.23D+00 RLast= 7.20D-01 DXMaxT set to 8.49D-01
 ITU=  1  1  0
 Use linear search instead of GDIIS.
     Eigenvalues ---    0.00105   0.00234   0.00247   0.00250   0.03284
     Eigenvalues ---    0.03382   0.03441   0.04703   0.04734   0.04974
     Eigenvalues ---    0.05347   0.05404   0.05412   0.05517   0.08262
     Eigenvalues ---    0.08348   0.08544   0.12167   0.12237   0.12375
     Eigenvalues ---    0.15735   0.16000   0.16000   0.16000   0.16032
     Eigenvalues ---    0.16182   0.21809   0.21920   0.22929   0.26944
     Eigenvalues ---    0.28498   0.28604   0.29635   0.39612   0.39757
     Eigenvalues ---    0.39816   0.39861   0.39877   0.39887   0.39899
     Eigenvalues ---    0.39903   0.39927   0.39965   0.40016   0.43246
 RFO step:  Lambda=-2.69457987D-03 EMin= 1.04954728D-03
 Quartic linear search produced a step of  1.43269.
 Iteration  1 RMS(Cart)=  0.14769527 RMS(Int)=  0.05696206
 Iteration  2 RMS(Cart)=  0.08161302 RMS(Int)=  0.00295336
 Iteration  3 RMS(Cart)=  0.00535396 RMS(Int)=  0.00006375
 Iteration  4 RMS(Cart)=  0.00001474 RMS(Int)=  0.00006338
 Iteration  5 RMS(Cart)=  0.00000000 RMS(Int)=  0.00006338
 Variable       Old X    -DE/DX   Delta X   Delta X   Delta X     New X
                                 (Linear)    (Quad)   (Total)
    R1        2.91558  -0.00273  -0.04311   0.01046  -0.03265   2.88293
    R2        2.06659  -0.00022   0.01419  -0.00963   0.00457   2.07115
    R3        2.06698  -0.00013   0.01511  -0.00979   0.00533   2.07230
    R4        2.06844  -0.00003   0.02088  -0.01304   0.00784   2.07628
    R5        2.91493  -0.00400  -0.03708  -0.00181  -0.03890   2.87603
    R6        2.07011   0.00074   0.01956  -0.00860   0.01096   2.08108
    R7        2.06917   0.00059   0.01801  -0.00832   0.00969   2.07886
    R8        2.91228  -0.00375  -0.03081  -0.00426  -0.03506   2.87721
    R9        2.07271   0.00069   0.01921  -0.00860   0.01060   2.08332
   R10        2.07115   0.00070   0.02188  -0.01029   0.01159   2.08274
   R11        2.89161  -0.00139  -0.02978   0.01025  -0.01954   2.87207
   R12        2.07089   0.00039   0.01792  -0.00918   0.00874   2.07963
   R13        2.07228   0.00049   0.02027  -0.01021   0.01006   2.08233
   R14        2.06804  -0.00034   0.01327  -0.00958   0.00368   2.07172
   R15        2.06958  -0.00022   0.01691  -0.01137   0.00555   2.07512
   R16        2.07005  -0.00010   0.01695  -0.01083   0.00612   2.07618
    A1        1.94144   0.00060   0.00499   0.00523   0.01015   1.95159
    A2        1.94963   0.00011   0.01621  -0.00909   0.00704   1.95668
    A3        1.93928   0.00010   0.00821  -0.00443   0.00374   1.94302
    A4        1.87659  -0.00030  -0.00736   0.00205  -0.00541   1.87119
    A5        1.87780  -0.00035  -0.01054   0.00299  -0.00757   1.87024
    A6        1.87571  -0.00022  -0.01330   0.00381  -0.00953   1.86618
    A7        1.99440  -0.00073  -0.00268  -0.00123  -0.00398   1.99042
    A8        1.91288   0.00062   0.01167   0.00460   0.01624   1.92912
    A9        1.90324   0.00055   0.01471  -0.00244   0.01223   1.91547
   A10        1.89927   0.00006   0.00771  -0.00507   0.00257   1.90185
   A11        1.89471  -0.00004   0.01168  -0.01318  -0.00156   1.89315
   A12        1.85411  -0.00045  -0.04658   0.01877  -0.02779   1.82632
   A13        1.97283  -0.00132   0.00182  -0.01061  -0.00886   1.96396
   A14        1.91693   0.00027   0.01026  -0.00419   0.00601   1.92294
   A15        1.90470   0.00063   0.00726   0.00120   0.00842   1.91312
   A16        1.89787   0.00070   0.01243   0.00018   0.01256   1.91044
   A17        1.91214   0.00024   0.01157  -0.00729   0.00426   1.91640
   A18        1.85572  -0.00046  -0.04613   0.02277  -0.02329   1.83243
   A19        1.96502   0.00039   0.00879   0.00088   0.00947   1.97450
   A20        1.90729  -0.00038   0.00525  -0.00967  -0.00464   1.90265
   A21        1.91125  -0.00032   0.00588  -0.00886  -0.00322   1.90803
   A22        1.90575   0.00030   0.01003   0.00154   0.01152   1.91728
   A23        1.91079   0.00022   0.01057   0.00026   0.01075   1.92155
   A24        1.86080  -0.00025  -0.04304   0.01677  -0.02628   1.83452
   A25        1.94570   0.00040   0.00447   0.00289   0.00728   1.95299
   A26        1.92882   0.00051   0.01844  -0.00606   0.01226   1.94108
   A27        1.93300   0.00028   0.01731  -0.00834   0.00887   1.94187
   A28        1.88741  -0.00043  -0.00982   0.00217  -0.00775   1.87965
   A29        1.88510  -0.00036  -0.01198   0.00342  -0.00861   1.87649
   A30        1.88172  -0.00046  -0.02015   0.00648  -0.01381   1.86792
    D1        2.52240   0.00082   0.13301   0.12609   0.25908   2.78148
    D2        0.38567   0.00079   0.11606   0.13008   0.24609   0.63177
    D3       -1.63723   0.00068   0.15704   0.10639   0.26343  -1.37380
    D4       -1.66370   0.00093   0.13797   0.12610   0.26409  -1.39961
    D5        2.48275   0.00090   0.12102   0.13009   0.25111   2.73387
    D6        0.45986   0.00079   0.16200   0.10641   0.26844   0.72830
    D7        0.43077   0.00079   0.13752   0.12178   0.25930   0.69008
    D8       -1.70595   0.00076   0.12057   0.12577   0.24632  -1.45963
    D9        2.55433   0.00065   0.16154   0.10208   0.26365   2.81799
   D10       -2.71157  -0.00095  -0.22260  -0.10346  -0.32604  -3.03761
   D11        1.44873  -0.00114  -0.24702  -0.09339  -0.34042   1.10831
   D12       -0.57921  -0.00109  -0.20147  -0.11912  -0.32057  -0.89978
   D13       -0.56744  -0.00062  -0.20355  -0.10218  -0.30572  -0.87316
   D14       -2.69033  -0.00080  -0.22797  -0.09211  -0.32010  -3.01043
   D15        1.56492  -0.00076  -0.18242  -0.11784  -0.30025   1.26468
   D16        1.44338  -0.00114  -0.24825  -0.08972  -0.33796   1.10542
   D17       -0.67951  -0.00133  -0.27266  -0.07965  -0.35233  -1.03185
   D18       -2.70745  -0.00128  -0.22712  -0.10537  -0.33248  -3.03993
   D19       -2.69375  -0.00085  -0.21121  -0.07865  -0.28987  -2.98363
   D20        1.46861  -0.00123  -0.23328  -0.07440  -0.30765   1.16096
   D21       -0.56371  -0.00053  -0.18781  -0.08404  -0.27188  -0.83559
   D22       -0.56017  -0.00089  -0.18821  -0.09098  -0.27916  -0.83933
   D23       -2.68099  -0.00127  -0.21027  -0.08673  -0.29694  -2.97793
   D24        1.56988  -0.00057  -0.16480  -0.09637  -0.26117   1.30871
   D25        1.46124  -0.00093  -0.22997  -0.06767  -0.29766   1.16357
   D26       -0.65959  -0.00131  -0.25203  -0.06342  -0.31544  -0.97503
   D27       -2.69190  -0.00060  -0.20656  -0.07306  -0.27967  -2.97157
   D28       -3.12040   0.00010   0.02036   0.00082   0.02119  -3.09921
   D29        1.06321   0.00003   0.01748   0.00025   0.01774   1.08095
   D30       -1.02093   0.00010   0.01983   0.00144   0.02125  -0.99968
   D31       -0.99870   0.00009   0.03964  -0.00979   0.02993  -0.96877
   D32       -3.09827   0.00002   0.03676  -0.01037   0.02648  -3.07180
   D33        1.10077   0.00008   0.03912  -0.00918   0.02999   1.13076
   D34        1.03248   0.00008  -0.00036   0.01137   0.01095   1.04344
   D35       -1.06709   0.00001  -0.00323   0.01079   0.00750  -1.05959
   D36        3.13196   0.00008  -0.00088   0.01198   0.01101  -3.14022
         Item               Value     Threshold  Converged?
 Maximum Force            0.004002     0.000450     NO 
 RMS     Force            0.000938     0.000300     NO 
 Maximum Displacement     0.730933     0.001800     NO 
 RMS     Displacement     0.219805     0.001200     NO 
 Predicted change in Energy=-6.483372D-03
 GradGradGradGradGradGradGradGradGradGradGradGradGradGradGradGradGradGrad

                          Input orientation:                          
 ---------------------------------------------------------------------
 Center     Atomic      Atomic             Coordinates (Angstroms)
 Number     Number       Type             X           Y           Z
 ---------------------------------------------------------------------
      1          6           0        0.054715   -0.134279   -0.001579
      2          6           0        0.878134    1.141602   -0.148252
      3          6           0        1.740089    1.466017    1.063384
      4          6           0        2.434041    2.815698    0.941031
      5          6           0        3.463581    3.058781    2.032296
      6          1           0       -0.795844   -0.151851   -0.692573
      7          1           0        0.649953   -1.034379   -0.196711
      8          1           0       -0.351160   -0.233309    1.014612
      9          1           0        3.919740    4.052286    1.950082
     10          1           0        0.223780    2.001075   -0.362487
     11          1           0        1.531514    1.063043   -1.029792
     12          1           0        2.495180    0.677207    1.215044
     13          1           0        1.120152    1.446161    1.974425
     14          1           0        1.674842    3.612170    0.959386
     15          1           0        2.907973    2.893415   -0.050727
     16          1           0        4.271253    2.316050    1.989196
     17          1           0        3.011057    2.984313    3.030666
 ---------------------------------------------------------------------
                    Distance matrix (angstroms):
                    1          2          3          4          5
     1  C    0.000000
     2  C    1.525583   0.000000
     3  C    2.556479   1.521931   0.000000
     4  C    3.905390   2.531794   1.522556   0.000000
     5  C    5.094375   3.887789   2.538919   1.519836   0.000000
     6  H    1.096007   2.184378   3.483079   4.680509   5.989639
     7  H    1.096615   2.188449   3.004700   4.393236   5.444165
     8  H    1.098720   2.180320   2.695071   4.130278   5.140601
     9  H    6.022850   4.703876   3.496555   2.180512   1.096308
    10  H    2.172229   1.101259   2.149090   2.692215   4.165337
    11  H    2.161420   1.100086   2.141794   2.787562   4.134276
    12  H    2.845093   2.165427   1.102445   2.156842   2.697702
    13  H    2.745458   2.158028   1.102139   2.160981   2.845268
    14  H    4.193345   2.822288   2.149661   1.100494   2.158000
    15  H    4.160580   2.683021   2.154683   1.101924   2.162183
    16  H    5.267494   4.178668   2.826035   2.173395   1.098108
    17  H    5.259285   4.248583   2.791196   2.174385   1.098665
                    6          7          8          9         10
     6  H    0.000000
     7  H    1.764954   0.000000
     8  H    1.766030   1.763872   0.000000
     9  H    6.848001   6.416727   6.122255   0.000000
    10  H    2.404929   3.069705   2.686900   4.818252   0.000000
    11  H    2.646938   2.422881   3.066688   4.849623   1.742231
    12  H    3.893222   2.885731   2.995140   3.736417   3.066021
    13  H    3.652063   3.329864   2.430353   3.824940   2.563702
    14  H    4.795947   4.896670   4.346888   2.492940   2.539400
    15  H    4.837755   4.532938   4.640398   2.523864   2.845761
    16  H    6.241626   5.396052   5.368030   1.771893   4.691658
    17  H    6.179848   5.669273   5.071692   1.770292   4.499906
                   11         12         13         14         15
    11  H    0.000000
    12  H    2.473219   0.000000
    13  H    3.056357   1.748900   0.000000
    14  H    3.236576   3.058157   2.455519   0.000000
    15  H    2.490676   2.585373   3.064651   1.748585   0.000000
    16  H    4.265031   2.537627   3.269000   3.079251   2.520550
    17  H    4.729445   2.980830   2.656516   2.543595   3.084456
                   16         17
    16  H    0.000000
    17  H    1.766162   0.000000
 Stoichiometry    C5H12
 Framework group  C1[X(C5H12)]
 Deg. of freedom    45
 Full point group                 C1      NOp   1
 Largest Abelian subgroup         C1      NOp   1
 Largest concise Abelian subgroup C1      NOp   1
                         Standard orientation:                         
 ---------------------------------------------------------------------
 Center     Atomic      Atomic             Coordinates (Angstroms)
 Number     Number       Type             X           Y           Z
 ---------------------------------------------------------------------
[...]
 ! A23   A(5,4,15)             109.7138         -DE/DX =    0.0                 !
 ! A24   A(14,4,15)            106.2367         -DE/DX =    0.0                 !
 ! A25   A(4,5,9)              111.6577         -DE/DX =    0.0                 !
 ! A26   A(4,5,16)             110.8471         -DE/DX =    0.0                 !
 ! A27   A(4,5,17)             110.8482         -DE/DX =    0.0                 !
 ! A28   A(9,5,16)             107.8707         -DE/DX =    0.0                 !
 ! A29   A(9,5,17)             107.8715         -DE/DX =    0.0                 !
 ! A30   A(16,5,17)            107.5812         -DE/DX =    0.0                 !
 ! D1    D(6,1,2,3)            179.9983         -DE/DX =    0.0                 !
 ! D2    D(6,1,2,10)            58.1753         -DE/DX =    0.0                 !
 ! D3    D(6,1,2,11)           -58.1775         -DE/DX =    0.0                 !
 ! D4    D(7,1,2,3)            -59.7026         -DE/DX =    0.0                 !
 ! D5    D(7,1,2,10)           178.4744         -DE/DX =    0.0                 !
 ! D6    D(7,1,2,11)            62.1215         -DE/DX =    0.0                 !
 ! D7    D(8,1,2,3)             59.698          -DE/DX =    0.0                 !
 ! D8    D(8,1,2,10)           -62.125          -DE/DX =    0.0                 !
 ! D9    D(8,1,2,11)          -178.4778         -DE/DX =    0.0                 !
 ! D10   D(1,2,3,4)            179.9994         -DE/DX =    0.0                 !
 ! D11   D(1,2,3,12)            57.8643         -DE/DX =    0.0                 !
 ! D12   D(1,2,3,13)           -57.8652         -DE/DX =    0.0                 !
 ! D13   D(10,2,3,4)           -57.8642         -DE/DX =    0.0                 !
 ! D14   D(10,2,3,12)          180.0006         -DE/DX =    0.0                 !
 ! D15   D(10,2,3,13)           64.2712         -DE/DX =    0.0                 !
 ! D16   D(11,2,3,4)            57.8618         -DE/DX =    0.0                 !
 ! D17   D(11,2,3,12)          -64.2734         -DE/DX =    0.0                 !
 ! D18   D(11,2,3,13)          179.9972         -DE/DX =    0.0                 !
 ! D19   D(2,3,4,5)           -180.0113         -DE/DX =    0.0                 !
 ! D20   D(2,3,4,14)            57.8528         -DE/DX =    0.0                 !
 ! D21   D(2,3,4,15)           -57.8744         -DE/DX =    0.0                 !
 ! D22   D(12,3,4,5)           -57.875          -DE/DX =    0.0                 !
 ! D23   D(12,3,4,14)          179.9891         -DE/DX =    0.0                 !
 ! D24   D(12,3,4,15)           64.2619         -DE/DX =    0.0                 !
 ! D25   D(13,3,4,5)            57.8543         -DE/DX =    0.0                 !
 ! D26   D(13,3,4,14)          -64.2816         -DE/DX =    0.0                 !
 ! D27   D(13,3,4,15)         -180.0088         -DE/DX =    0.0                 !
 ! D28   D(3,4,5,9)            179.9912         -DE/DX =    0.0                 !
 ! D29   D(3,4,5,16)            59.6915         -DE/DX =    0.0                 !
 ! D30   D(3,4,5,17)           -59.7072         -DE/DX =    0.0                 !
 ! D31   D(14,4,5,9)           -58.1843         -DE/DX =    0.0                 !
 ! D32   D(14,4,5,16)         -178.4841         -DE/DX =    0.0                 !
 ! D33   D(14,4,5,17)           62.1173         -DE/DX =    0.0                 !
 ! D34   D(15,4,5,9)            58.1678         -DE/DX =    0.0                 !
 ! D35   D(15,4,5,16)          -62.132          -DE/DX =    0.0                 !
 ! D36   D(15,4,5,17)          178.4693         -DE/DX =    0.0                 !
 --------------------------------------------------------------------------------
 GradGradGradGradGradGradGradGradGradGradGradGradGradGradGradGradGradGrad

                          Input orientation:                          
 ---------------------------------------------------------------------
 Center     Atomic      Atomic             Coordinates (Angstroms)
 Number     Number       Type             X           Y           Z
 ---------------------------------------------------------------------
      1          6           0        0.071582   -0.143967    0.009987
      2          6           0        0.787274    1.197818   -0.123450
      3          6           0        1.762472    1.460882    1.022177
      4          6           0        2.486573    2.800314    0.902513
      5          6           0        3.457085    3.048955    2.054330
      6          1           0       -0.622116   -0.315529   -0.818089
      7          1           0        0.790800   -0.969808    0.022490
      8          1           0       -0.500629   -0.189474    0.942697
      9          1           0        3.966364    4.011564    1.952429
     10          1           0        0.048863    2.009145   -0.161447
     11          1           0        1.332075    1.233786   -1.075732
     12          1           0        2.503259    0.649593    1.062452
     13          1           0        1.219212    1.425451    1.977264
     14          1           0        1.744864    3.608524    0.862295
     15          1           0        3.028217    2.833047   -0.051687
     16          1           0        4.222331    2.266518    2.095005
     17          1           0        2.930773    3.047181    3.014764
 ---------------------------------------------------------------------
                    Distance matrix (angstroms):
                    1          2          3          4          5
     1  C    0.000000
     2  C    1.526568   0.000000
     3  C    2.541491   1.527310   0.000000
     4  C    3.911212   2.551120   1.527325   0.000000
     5  C    5.082885   3.911179   2.541462   1.526564   0.000000
     6  H    1.093783   2.181541   3.496923   4.725769   6.017510
     7  H    1.095191   2.172537   2.802102   4.226572   5.233345
     8  H    1.095192   2.172544   2.802074   4.226562   5.233226
     9  H    6.017544   4.725786   3.496925   2.181566   1.093784
    10  H    2.160046   1.097701   2.153605   2.774958   4.196052
    11  H    2.160054   1.097699   2.153611   2.774947   4.196164
    12  H    2.765948   2.156738   1.099353   2.156725   2.765962
    13  H    2.765919   2.156707   1.099353   2.156743   2.765823
    14  H    4.196129   2.774919   2.153657   1.097704   2.160038
    15  H    4.196201   2.775058   2.153632   1.097701   2.160059
    16  H    5.233207   4.226497   2.801948   2.172517   1.095200
    17  H    5.233267   4.226478   2.802084   2.172524   1.095190
                    6          7          8          9         10
     6  H    0.000000
     7  H    1.769460   0.000000
     8  H    1.769468   1.767340   0.000000
     9  H    6.888661   6.214735   6.214684   0.000000
    10  H    2.507090   3.075462   2.520913   4.881082   0.000000
    11  H    2.507113   2.520893   3.075472   4.881115   1.756056
    12  H    3.773044   2.576139   3.121172   3.773007   3.061106
    13  H    3.772996   3.121209   2.576076   3.772988   2.506891
    14  H    4.881032   4.751488   4.412879   2.507168   2.546072
    15  H    4.881171   4.412850   4.751546   2.507091   3.093123
    16  H    6.214640   5.152138   5.446656   1.769473   4.751384
    17  H    6.214628   5.446961   5.152079   1.769474   4.412623
                   11         12         13         14         15
    11  H    0.000000
    12  H    2.506948   0.000000
    13  H    3.061088   1.757160   0.000000
    14  H    3.092851   3.061128   2.507045   0.000000
    15  H    2.546213   2.506863   3.061122   1.756053   0.000000
    16  H    4.412901   2.576009   3.120893   3.075451   2.520943
    17  H    4.751463   3.121333   2.576015   2.520835   3.075463
                   16         17
    16  H    0.000000
    17  H    1.767346   0.000000
 Stoichiometry    C5H12
 Framework group  C1[X(C5H12)]
 Deg. of freedom    45
 Full point group                 C1      NOp   1
 Largest Abelian subgroup         C1      NOp   1
 Largest concise Abelian subgroup C1      NOp   1
                         Standard orientation:                         
 ---------------------------------------------------------------------
 Center     Atomic      Atomic             Coordinates (Angstroms)
 Number     Number       Type             X           Y           Z
 ---------------------------------------------------------------------
      1          6           0        2.541451   -0.326675   -0.000016
      2          6           0        1.275553    0.526502   -0.000057
      3          6           0       -0.000006   -0.313512    0.000088
      4          6           0       -1.275567    0.526528    0.000063
      5          6           0       -2.541434   -0.326688   -0.000070
      6          1           0        3.444317    0.290734   -0.000151
      7          1           0        2.576142   -0.972589    0.883746
      8          1           0        2.576038   -0.972847   -0.883594
      9          1           0       -3.444344    0.290659    0.000069
     10          1           0        1.273016    1.185187   -0.878165
     11          1           0        1.273088    1.185399    0.877890
     12          1           0        0.000008   -0.974243    0.878730
     13          1           0       -0.000032   -0.974407   -0.878430
     14          1           0       -1.273055    1.185381   -0.877923
     15          1           0       -1.273126    1.185268    0.878130
     16          1           0       -2.575996   -0.972892    0.883497
     17          1           0       -2.576041   -0.972581   -0.883849
 ---------------------------------------------------------------------
 Rotational constants (GHZ):          16.9794997           1.9507186           1.8497555

 **********************************************************************

            Population analysis using the SCF density.

 **********************************************************************

 Orbital symmetries:
       Occupied  (A) (A) (A) (A) (A) (A) (A) (A) (A) (A) (A) (A)
                 (A) (A) (A) (A) (A) (A) (A) (A) (A)
       Virtual   (A) (A) (A) (A) (A) (A) (A) (A) (A) (A) (A) (A)
                 (A) (A) (A) (A) (A) (A) (A) (A) (A) (A) (A) (A)
                 (A) (A) (A) (A) (A) (A) (A) (A) (A) (A) (A) (A)
                 (A) (A) (A) (A) (A) (A) (A) (A) (A) (A) (A) (A)
                 (A) (A) (A) (A) (A) (A) (A) (A) (A) (A) (A) (A)
                 (A) (A) (A) (A) (A) (A) (A) (A) (A) (A) (A) (A)
                 (A) (A) (A) (A) (A) (A)
 The electronic state is 1-A.
 Alpha  occ. eigenvalues --  -10.53436 -10.53434 -10.53238 -10.52792 -10.52792
 Alpha  occ. eigenvalues --   -0.89778  -0.84246  -0.76109  -0.67783  -0.65222
 Alpha  occ. eigenvalues --   -0.54351  -0.50153  -0.49594  -0.46296  -0.45509
 Alpha  occ. eigenvalues --   -0.43621  -0.40934  -0.39114  -0.38104  -0.37586
 Alpha  occ. eigenvalues --   -0.36646
 Alpha virt. eigenvalues --    0.13412   0.15421   0.17161   0.18022   0.20001
 Alpha virt. eigenvalues --    0.22227   0.22234   0.22303   0.24212   0.24529
 Alpha virt. eigenvalues --    0.24834   0.25314   0.27191   0.29814   0.32147
 Alpha virt. eigenvalues --    0.32378   0.53968   0.56024   0.56116   0.59444
 Alpha virt. eigenvalues --    0.60343   0.64541   0.64608   0.71045   0.71523
 Alpha virt. eigenvalues --    0.75177   0.77162   0.81832   0.84437   0.88422
 Alpha virt. eigenvalues --    0.91809   0.95429   0.96076   0.96609   0.97975
 Alpha virt. eigenvalues --    0.99676   0.99864   1.01660   1.01666   1.02212
 Alpha virt. eigenvalues --    1.04120   1.06130   1.06518   1.14031   1.37352
 Alpha virt. eigenvalues --    1.46743   1.47188   1.51164   1.52675   1.61890
 Alpha virt. eigenvalues --    1.74378   1.84446   1.84914   1.94462   1.96388
 Alpha virt. eigenvalues --    1.99323   2.02634   2.04623   2.05169   2.06363
 Alpha virt. eigenvalues --    2.14369   2.26921   2.28068   2.34039   2.36750
 Alpha virt. eigenvalues --    2.37600   2.45091   2.47244   2.47765   2.60707
 Alpha virt. eigenvalues --    2.60916   2.76389   2.81515   4.15985   4.24845
 Alpha virt. eigenvalues --    4.35067   4.44230   4.57091
          Condensed to atoms (all electrons):
               1          2          3          4          5          6
     1  C    5.096575   0.360778  -0.049659   0.004110  -0.000144   0.380647
     2  C    0.360778   5.006980   0.377136  -0.042995   0.004110  -0.029422
     3  C   -0.049659   0.377136   5.031452   0.377135  -0.049663   0.004341
     4  C    0.004110  -0.042995   0.377135   5.006991   0.360777  -0.000131
     5  C   -0.000144   0.004110  -0.049663   0.360777   5.096577   0.000001
     6  H    0.380647  -0.029422   0.004341  -0.000131   0.000001   0.548030
     7  H    0.384249  -0.036145  -0.004580   0.000032   0.000000  -0.028538
     8  H    0.384249  -0.036145  -0.004580   0.000032   0.000000  -0.028537
     9  H    0.000001  -0.000131   0.004341  -0.029421   0.380647  -0.000000
    10  H   -0.038175   0.386770  -0.041398  -0.003426   0.000030  -0.002734
    11  H   -0.038174   0.386768  -0.041399  -0.003424   0.000030  -0.002733
    12  H   -0.002806  -0.040590   0.382852  -0.040588  -0.002807  -0.000021
    13  H   -0.002807  -0.040594   0.382856  -0.040594  -0.002807  -0.000021
    14  H    0.000030  -0.003425  -0.041398   0.386769  -0.038176   0.000002
    15  H    0.000030  -0.003425  -0.041393   0.386766  -0.038173   0.000002
    16  H    0.000000   0.000032  -0.004581  -0.036149   0.384248   0.000000
    17  H    0.000000   0.000032  -0.004581  -0.036145   0.384250   0.000000
               7          8          9         10         11         12
     1  C    0.384249   0.384249   0.000001  -0.038175  -0.038174  -0.002806
     2  C   -0.036145  -0.036145  -0.000131   0.386770   0.386768  -0.040590
     3  C   -0.004580  -0.004580   0.004341  -0.041398  -0.041399   0.382852
     4  C    0.000032   0.000032  -0.029421  -0.003426  -0.003424  -0.040588
     5  C    0.000000   0.000000   0.380647   0.000030   0.000030  -0.002807
     6  H   -0.028538  -0.028537  -0.000000  -0.002734  -0.002733  -0.000021
     7  H    0.555339  -0.030422   0.000000   0.004878  -0.004251   0.004386
     8  H   -0.030422   0.555337   0.000000  -0.004251   0.004878  -0.000338
     9  H    0.000000   0.000000   0.548028   0.000002   0.000002  -0.000021
    10  H    0.004878  -0.004251   0.000002   0.582088  -0.036071   0.005515
    11  H   -0.004251   0.004878   0.000002  -0.036071   0.582088  -0.005053
    12  H    0.004386  -0.000338  -0.000021   0.005515  -0.005053   0.590175
    13  H   -0.000338   0.004387  -0.000021  -0.005054   0.005515  -0.037126
    14  H    0.000004   0.000004  -0.002732   0.004559  -0.000382   0.005514
    15  H    0.000004   0.000004  -0.002734  -0.000382   0.004557  -0.005055
    16  H   -0.000001   0.000000  -0.028537   0.000004   0.000004   0.004387
    17  H    0.000000  -0.000001  -0.028536   0.000004   0.000004  -0.000338
              13         14         15         16         17
     1  C   -0.002807   0.000030   0.000030   0.000000   0.000000
     2  C   -0.040594  -0.003425  -0.003425   0.000032   0.000032
     3  C    0.382856  -0.041398  -0.041393  -0.004581  -0.004581
     4  C   -0.040594   0.386769   0.386766  -0.036149  -0.036145
     5  C   -0.002807  -0.038176  -0.038173   0.384248   0.384250
     6  H   -0.000021   0.000002   0.000002   0.000000   0.000000
     7  H   -0.000338   0.000004   0.000004  -0.000001   0.000000
     8  H    0.004387   0.000004   0.000004   0.000000  -0.000001
     9  H   -0.000021  -0.002732  -0.002734  -0.028537  -0.028536
    10  H   -0.005054   0.004559  -0.000382   0.000004   0.000004
    11  H    0.005515  -0.000382   0.004557   0.000004   0.000004
    12  H   -0.037126   0.005514  -0.005055   0.004387  -0.000338
    13  H    0.590180  -0.005051   0.005514  -0.000338   0.004387
    14  H   -0.005051   0.582087  -0.036072   0.004878  -0.004253
    15  H    0.005514  -0.036072   0.582084  -0.004250   0.004878
    16  H   -0.000338   0.004878  -0.004250   0.555346  -0.030422
    17  H    0.004387  -0.004253   0.004878  -0.030422   0.555335
 Mulliken charges:
               1
     1  C   -0.478904
     2  C   -0.289734
     3  C   -0.276879
     4  C   -0.289738
     5  C   -0.478900
     6  H    0.159114
     7  H    0.155384
     8  H    0.155384
     9  H    0.159114
    10  H    0.147642
    11  H    0.147642
    12  H    0.141914
    13  H    0.141911
    14  H    0.147642
    15  H    0.147644
    16  H    0.155379
    17  H    0.155385
 Sum of Mulliken charges =  -0.00000
 Mulliken charges with hydrogens summed into heavy atoms:
               1
     1  C   -0.009022
     2  C    0.005551
     3  C    0.006945
     4  C    0.005548
     5  C   -0.009022
 Electronic spatial extent (au):  <R**2>=            714.4639
 Charge=             -0.0000 electrons
 Dipole moment (field-independent basis, Debye):
    X=              0.0000    Y=              0.0557    Z=              0.0000  Tot=              0.0557
 Quadrupole moment (field-independent basis, Debye-Ang):
   XX=            -35.4894   YY=            -35.1751   ZZ=            -34.3542
   XY=             -0.0001   XZ=             -0.0000   YZ=              0.0001
 Traceless Quadrupole moment (field-independent basis, Debye-Ang):
   XX=             -0.4831   YY=             -0.1689   ZZ=              0.6520
   XY=             -0.0001   XZ=             -0.0000   YZ=              0.0001
 Octapole moment (field-independent basis, Debye-Ang**2):
  XXX=              0.0001  YYY=              0.1595  ZZZ=              0.0000  XYY=              0.0001
  XXY=              2.1858  XXZ=             -0.0000  XZZ=              0.0001  YZZ=             -0.4999
  YYZ=             -0.0000  XYZ=             -0.0001
 Hexadecapole moment (field-independent basis, Debye-Ang**3):
 XXXX=           -807.4097 YYYY=           -119.6430 ZZZZ=            -70.0134 XXXY=             -0.0010
 XXXZ=             -0.0014 YYYX=             -0.0004 YYYZ=              0.0004 ZZZX=              0.0012
 ZZZY=              0.0000 XXYY=           -153.6636 XXZZ=           -145.8327 YYZZ=            -28.2930
 XXYZ=              0.0002 YYXZ=             -0.0006 ZZXY=             -0.0002
 N-N= 1.849988670408D+02 E-N=-8.260303472723D+02  KE= 1.958282724666D+02
 1\1\GINC-ROBERTS-MACBOOK-PRO-2\FOpt\RM062X\6-31G(d)\C5H12\ROBERT.PATON
 \22-Sep-2018\0\\# opt=(maxcycles=160) M062X/6-31G(d) emp=GD3\\Generate
 d by prepare_file.py\\0,1\C,0.0715823891,-0.1439672651,0.0099873023\C,
 0.7872740782,1.1978182153,-0.1234500409\C,1.7624719497,1.4608820947,1.
 0221772649\C,2.4865734871,2.8003141147,0.9025129905\C,3.4570853184,3.0
 489548615,2.0543298736\H,-0.6221161087,-0.31552864,-0.818088633\H,0.79
 08003185,-0.9698083619,0.0224904739\H,-0.5006288277,-0.1894744688,0.94
 26974204\H,3.9663635395,4.0115639689,1.9524291252\H,0.0488628448,2.009
 1453198,-0.161446921\H,1.3320746111,1.2337861977,-1.0757321427\H,2.503
 2590382,0.6495926869,1.0624519608\H,1.2192124263,1.4254512932,1.977263
 7611\H,1.744864329,3.6085243665,0.8622952098\H,3.0282167799,2.83304719
 47,-0.0516873935\H,4.2223307804,2.2665177017,2.0950054158\H,2.93077304
 63,3.0471807202,3.0147643329\\Version=EM64M-G16RevA.03\State=1-A\HF=-1
 97.650408\RMSD=4.205e-09\RMSF=4.520e-06\Dipole=-0.0032737,0.0140266,-0
 .0164995\Quadrupole=0.0967093,-0.0987118,0.0020025,-0.294645,-0.294816
 1,0.0812382\PG=C01 [X(C5H12)]\\@


    UPON JULIA'S CLOTHES

 WHENAS IN SILKS MY JULIA GOES,
 THEN, THEN, METHINKS, HOW SWEETLY FLOWS
 THAT LIQUEFACTION OF HER CLOTHES.

 NEXT, WHEN I CAST MINE EYES, AND SEE
 THAT BRAVE VIBRATION, EACH WAY FREE,
 O, HOW THAT GLITTERING TAKETH ME!
     -- ROBERT HERRICK, 1648
 Job cpu time:       0 days  0 hours 15 minutes 29.1 seconds.
 Elapsed time:       0 days  0 hours  4 minutes  2.1 seconds.
 File lengths (MBytes):  RWF=     10 Int=      0 D2E=      0 Chk=      2 Scr=      1
 Normal termination of Gaussian 16 at Sat Sep 22 00:29:58 2018.
