 Entering Gaussian System, Link 0=g16
 Initial command:
 /Applications/g16/l1.exe "/var/folders/hc/gtglrcdn25lc_0x4jfkqf1nh0000gn/T/Gau-28160.inp" -scrdir="/var/folders/hc/gtglrcdn25lc_0x4jfkqf1nh0000gn/T/"
 Entering Link 1 = /Applications/g16/l1.exe PID=     28161.
  
 Copyright (c) 1988,1990,1992,1993,1995,1998,2003,2009,2016,
            Gaussian, Inc.  All Rights Reserved.
  
 This is part of the Gaussian(R) 16 program.  It is based on
 the Gaussian(R) 09 system (copyright 2009, Gaussian, Inc.),
 the Gaussian(R) 03 system (copyright 2003, Gaussian, Inc.),
 the Gaussian(R) 98 system (copyright 1998, Gaussian, Inc.),
 the Gaussian(R) 94 system (copyright 1995, Gaussian, Inc.),
 the Gaussian 92(TM) system (copyright 1992, Gaussian, Inc.),
 the Gaussian 90(TM) system (copyright 1990, Gaussian, Inc.),
 the Gaussian 88(TM) system (copyright 1988, Gaussian, Inc.),
 the Gaussian 86(TM) system (copyright 1986, Carnegie Mellon
 University), and the Gaussian 82(TM) system (copyright 1983,
 Carnegie Mellon University). Gaussian is a federally registered
 trademark of Gaussian, Inc.
  
 This software contains proprietary and confidential information,
 including trade secrets, belonging to Gaussian, Inc.
  
 This software is provided under written license and may be
 used, copied, transmitted, or stored only in accord with that
 written license.
  
 The following legend is applicable only to US Government
 contracts under FAR:
  
                    RESTRICTED RIGHTS LEGEND
  
 Use, reproduction and disclosure by the US Government is
 subject to restrictions as set forth in subparagraphs (a)
 and (c) of the Commercial Computer Software - Restricted
 Rights clause in FAR 52.227-19.
  
 Gaussian, Inc.
 340 Quinnipiac St., Bldg. 40, Wallingford CT 06492
  
  
 ---------------------------------------------------------------
 Warning -- This program may not be used in any manner that
 competes with the business of Gaussian, Inc. or will provide
 assistance to any competitor of Gaussian, Inc.  The licensee
 of this program is prohibited from giving any competitor of
 Gaussian, Inc. access to this program.  By using this program,
 the user acknowledges that Gaussian, Inc. is engaged in the
 business of creating and licensing software in the field of
 computational chemistry and represents and warrants to the
 licensee that it is not a competitor of Gaussian, Inc. and that
 it will not use this program in any manner prohibited above.
 ---------------------------------------------------------------
  

 Cite this work as:
 Gaussian 16, Revision A.03,
 M. J. Frisch, G. W. Trucks, H. B. Schlegel, G. E. Scuseria, 
 M. A. Robb, J. R. Cheeseman, G. Scalmani, V. Barone, 
 G. A. Petersson, H. Nakatsuji, X. Li, M. Caricato, A. V. Marenich, 
 J. Bloino, B. G. Janesko, R. Gomperts, B. Mennucci, H. P. Hratchian, 
 J. V. Ortiz, A. F. Izmaylov, J. L. Sonnenberg, D. Williams-Young, 
 F. Ding, F. Lipparini, F. Egidi, J. Goings, B. Peng, A. Petrone, 
 T. Henderson, D. Ranasinghe, V. G. Zakrzewski, J. Gao, N. Rega, 
 G. Zheng, W. Liang, M. Hada, M. Ehara, K. Toyota, R. Fukuda, 
 J. Hasegawa, M. Ishida, T. Nakajima, Y. Honda, O. Kitao, H. Nakai, 
 T. Vreven, K. Throssell, J. A. Montgomery, Jr., J. E. Peralta, 
 F. Ogliaro, M. J. Bearpark, J. J. Heyd, E. N. Brothers, K. N. Kudin, 
 V. N. Staroverov, T. A. Keith, R. Kobayashi, J. Normand, 
 K. Raghavachari, A. P. Rendell, J. C. Burant, S. S. Iyengar, 
 J. Tomasi, M. Cossi, J. M. Millam, M. Klene, C. Adamo, R. Cammi, 
 J. W. Ochterski, R. L. Martin, K. Morokuma, O. Farkas, 
 J. B. Foresman, and D. J. Fox, Gaussian, Inc., Wallingford CT, 2016.
 
 ******************************************
 Gaussian 16:  EM64M-G16RevA.03 25-Dec-2016
                21-Sep-2018 
 ******************************************
 %mem=1GB
 %nprocshared=4
 Will use up to    4 processors via shared memory.
 %chk=pentane_1.chk
 --------------------------------------------
 # opt=(maxcycles=160) M062X/6-31G(d) emp=GD3
 --------------------------------------------
 1/6=160,18=20,19=15,26=3,38=1/1,3;
 2/9=110,12=2,17=6,18=5,40=1/2;
 3/5=1,6=6,7=1,11=2,25=1,30=1,71=1,74=-55,124=31/1,2,3;
 4//1;
 5/5=2,38=5/2;
 6/7=2,8=2,9=2,10=2,28=1/1;
 7//1,2,3,16;
 1/6=160,18=20,19=15,26=3/3(2);
 2/9=110/2;
 99//99;
 2/9=110/2;
 3/5=1,6=6,7=1,11=2,25=1,30=1,71=1,74=-55,124=31/1,2,3;
 4/5=5,16=3,69=1/1;
 5/5=2,38=5/2;
 7//1,2,3,16;
 1/6=160,18=20,19=15,26=3/3(-5);
 2/9=110/2;
 6/7=2,8=2,9=2,10=2,19=2,28=1/1;
 99/9=1/99;
 ----------------------------
 Generated by prepare_file.py
 ----------------------------
 Symbolic Z-matrix:
 Charge =  0 Multiplicity = 1
 C                     0.        0.        0. 
 C                     1.171     0.975    -0.22 
 C                     1.752     1.396     1.143 
 C                     2.521     0.213     1.76 
 C                     2.453    -0.996     0.809 
 H                    -0.785     0.244    -0.653 
 H                     0.322    -0.981    -0.19 
 H                    -0.335     0.073     0.993 
 H                     2.977    -1.803     1.23 
 H                     0.828     1.825    -0.731 
 H                     1.917     0.503    -0.787 
 H                     0.97      1.677     1.786 
 H                     2.405     2.207     1.011 
 H                     2.091    -0.042     2.682 
 H                     3.525     0.487     1.905 
 H                     2.887    -0.742    -0.114 
 H                     1.45     -1.27      0.661 
 

 GradGradGradGradGradGradGradGradGradGradGradGradGradGradGradGradGradGrad
 Berny optimization.
 Initialization pass.
                           ----------------------------
                           !    Initial Parameters    !
                           ! (Angstroms and Degrees)  !
 --------------------------                            --------------------------
 ! Name  Definition              Value          Derivative Info.                !
 --------------------------------------------------------------------------------
 ! R1    R(1,2)                  1.5396         estimate D2E/DX2                !
 ! R2    R(1,6)                  1.0498         estimate D2E/DX2                !
 ! R3    R(1,7)                  1.0498         estimate D2E/DX2                !
 ! R4    R(1,8)                  1.0505         estimate D2E/DX2                !
 ! R5    R(2,3)                  1.5403         estimate D2E/DX2                !
 ! R6    R(2,10)                 1.0494         estimate D2E/DX2                !
 ! R7    R(2,11)                 1.0492         estimate D2E/DX2                !
 ! R8    R(3,4)                  1.54           estimate D2E/DX2                !
 ! R9    R(3,12)                 1.0507         estimate D2E/DX2                !
 ! R10   R(3,13)                 1.0495         estimate D2E/DX2                !
 ! R11   R(4,5)                  1.5397         estimate D2E/DX2                !
 ! R12   R(4,14)                 1.0488         estimate D2E/DX2                !
 ! R13   R(4,15)                 1.0508         estimate D2E/DX2                !
 ! R14   R(5,9)                  1.0503         estimate D2E/DX2                !
 ! R15   R(5,16)                 1.0511         estimate D2E/DX2                !
 ! R16   R(5,17)                 1.0502         estimate D2E/DX2                !
 ! A1    A(2,1,6)              109.4301         estimate D2E/DX2                !
 ! A2    A(2,1,7)              109.428          estimate D2E/DX2                !
 ! A3    A(2,1,8)              109.4882         estimate D2E/DX2                !
 ! A4    A(6,1,7)              109.5086         estimate D2E/DX2                !
 ! A5    A(6,1,8)              109.472          estimate D2E/DX2                !
 ! A6    A(7,1,8)              109.5003         estimate D2E/DX2                !
 ! A7    A(1,2,3)              109.4839         estimate D2E/DX2                !
 ! A8    A(1,2,10)             109.5077         estimate D2E/DX2                !
 ! A9    A(1,2,11)             109.459          estimate D2E/DX2                !
 ! A10   A(3,2,10)             109.438          estimate D2E/DX2                !
 ! A11   A(3,2,11)             109.4492         estimate D2E/DX2                !
 ! A12   A(10,2,11)            109.4895         estimate D2E/DX2                !
 ! A13   A(2,3,4)              109.4464         estimate D2E/DX2                !
 ! A14   A(2,3,12)             109.5053         estimate D2E/DX2                !
 ! A15   A(2,3,13)             109.5475         estimate D2E/DX2                !
 ! A16   A(4,3,12)             109.3851         estimate D2E/DX2                !
 ! A17   A(4,3,13)             109.4689         estimate D2E/DX2                !
 ! A18   A(12,3,13)            109.474          estimate D2E/DX2                !
 ! A19   A(3,4,5)              109.4921         estimate D2E/DX2                !
 ! A20   A(3,4,14)             109.5271         estimate D2E/DX2                !
 ! A21   A(3,4,15)             109.3965         estimate D2E/DX2                !
 ! A22   A(5,4,14)             109.5088         estimate D2E/DX2                !
 ! A23   A(5,4,15)             109.4014         estimate D2E/DX2                !
 ! A24   A(14,4,15)            109.5013         estimate D2E/DX2                !
 ! A25   A(4,5,9)              109.4946         estimate D2E/DX2                !
 ! A26   A(4,5,16)             109.5356         estimate D2E/DX2                !
 ! A27   A(4,5,17)             109.5163         estimate D2E/DX2                !
 ! A28   A(9,5,16)             109.3704         estimate D2E/DX2                !
 ! A29   A(9,5,17)             109.4209         estimate D2E/DX2                !
 ! A30   A(16,5,17)            109.4893         estimate D2E/DX2                !
 ! D1    D(6,1,2,3)            137.7376         estimate D2E/DX2                !
 ! D2    D(6,1,2,10)            17.7482         estimate D2E/DX2                !
 ! D3    D(6,1,2,11)          -102.2891         estimate D2E/DX2                !
 ! D4    D(7,1,2,3)           -102.2681         estimate D2E/DX2                !
 ! D5    D(7,1,2,10)           137.7425         estimate D2E/DX2                !
 ! D6    D(7,1,2,11)            17.7052         estimate D2E/DX2                !
 ! D7    D(8,1,2,3)             17.7515         estimate D2E/DX2                !
 ! D8    D(8,1,2,10)          -102.2379         estimate D2E/DX2                !
 ! D9    D(8,1,2,11)           137.7248         estimate D2E/DX2                !
 ! D10   D(1,2,3,4)             71.9815         estimate D2E/DX2                !
 ! D11   D(1,2,3,12)           -47.9188         estimate D2E/DX2                !
 ! D12   D(1,2,3,13)          -167.9899         estimate D2E/DX2                !
 ! D13   D(10,2,3,4)          -167.9865         estimate D2E/DX2                !
 ! D14   D(10,2,3,12)           72.1133         estimate D2E/DX2                !
 ! D15   D(10,2,3,13)          -47.9578         estimate D2E/DX2                !
 ! D16   D(11,2,3,4)           -47.9979         estimate D2E/DX2                !
 ! D17   D(11,2,3,12)         -167.8981         estimate D2E/DX2                !
 ! D18   D(11,2,3,13)           72.0308         estimate D2E/DX2                !
 ! D19   D(2,3,4,5)              0.0072         estimate D2E/DX2                !
 ! D20   D(2,3,4,14)          -120.0859         estimate D2E/DX2                !
 ! D21   D(2,3,4,15)           119.8888         estimate D2E/DX2                !
 ! D22   D(12,3,4,5)           119.9811         estimate D2E/DX2                !
 ! D23   D(12,3,4,14)           -0.112          estimate D2E/DX2                !
 ! D24   D(12,3,4,15)         -120.1373         estimate D2E/DX2                !
 ! D25   D(13,3,4,5)          -120.0696         estimate D2E/DX2                !
 ! D26   D(13,3,4,14)          119.8373         estimate D2E/DX2                !
 ! D27   D(13,3,4,15)           -0.188          estimate D2E/DX2                !
 ! D28   D(3,4,5,9)           -179.969          estimate D2E/DX2                !
 ! D29   D(3,4,5,16)            60.1008         estimate D2E/DX2                !
 ! D30   D(3,4,5,17)           -59.9886         estimate D2E/DX2                !
 ! D31   D(14,4,5,9)           -59.8646         estimate D2E/DX2                !
 ! D32   D(14,4,5,16)         -179.7949         estimate D2E/DX2                !
 ! D33   D(14,4,5,17)           60.1157         estimate D2E/DX2                !
 ! D34   D(15,4,5,9)            60.1524         estimate D2E/DX2                !
 ! D35   D(15,4,5,16)          -59.7778         estimate D2E/DX2                !
 ! D36   D(15,4,5,17)         -179.8672         estimate D2E/DX2                !
 --------------------------------------------------------------------------------
 Trust Radius=3.00D-01 FncErr=1.00D-07 GrdErr=1.00D-06 EigMax=2.50D+02 EigMin=1.00D-04
 Number of steps in this run=    102 maximum allowed number of steps=    102.
 GradGradGradGradGradGradGradGradGradGradGradGradGradGradGradGradGradGrad

                          Input orientation:                          
 ---------------------------------------------------------------------
 Center     Atomic      Atomic             Coordinates (Angstroms)
 Number     Number       Type             X           Y           Z
 ---------------------------------------------------------------------
      1          6           0        0.000000    0.000000    0.000000
      2          6           0        1.171000    0.975000   -0.220000
      3          6           0        1.752000    1.396000    1.143000
      4          6           0        2.521000    0.213000    1.760000
      5          6           0        2.453000   -0.996000    0.809000
      6          1           0       -0.785000    0.244000   -0.653000
      7          1           0        0.322000   -0.981000   -0.190000
      8          1           0       -0.335000    0.073000    0.993000
      9          1           0        2.977000   -1.803000    1.230000
     10          1           0        0.828000    1.825000   -0.731000
     11          1           0        1.917000    0.503000   -0.787000
     12          1           0        0.970000    1.677000    1.786000
     13          1           0        2.405000    2.207000    1.011000
     14          1           0        2.091000   -0.042000    2.682000
     15          1           0        3.525000    0.487000    1.905000
     16          1           0        2.887000   -0.742000   -0.114000
     17          1           0        1.450000   -1.270000    0.661000
 ---------------------------------------------------------------------
                    Distance matrix (angstroms):
                    1          2          3          4          5
     1  C    0.000000
     2  C    1.539567   0.000000
     3  C    2.514909   1.540315   0.000000
     4  C    3.081949   2.514666   1.539980   0.000000
     5  C    2.768340   2.566555   2.514880   1.539710   0.000000
     6  H    1.049843   2.132554   3.314979   4.093063   3.762936
     7  H    1.049831   2.132519   3.077648   3.172339   2.353590
     8  H    1.050525   2.133778   2.475560   2.960511   2.991582
     9  H    3.691373   3.616825   3.426630   2.133798   1.050269
    10  H    2.133207   1.049414   2.133001   3.416120   3.601426
    11  H    2.132432   1.049185   2.132973   2.633652   2.254221
    12  H    2.634962   2.134770   1.050683   2.132973   3.209166
    13  H    3.417162   2.134465   1.049549   2.133188   3.209722
    14  H    3.401054   3.209719   2.133374   1.048813   2.132906
    15  H    4.036313   3.208595   2.133179   1.050770   2.133000
    16  H    2.983007   2.429811   2.727511   2.134914   1.051095
    17  H    2.037724   2.427762   2.726001   2.134041   1.050233
                    6          7          8          9         10
     6  H    0.000000
     7  H    1.714772   0.000000
     8  H    1.714951   1.715242   0.000000
     9  H    4.678519   3.121075   3.813776   0.000000
    10  H    2.259959   2.902129   2.719237   4.650388   0.000000
    11  H    2.717690   2.258913   2.902551   3.241840   1.713692
    12  H    3.328999   3.374825   2.214653   4.055562   2.525343
    13  H    4.098581   3.993073   3.473022   4.056507   2.380634
    14  H    4.413094   3.501352   2.958280   2.448351   4.090162
    15  H    5.017820   4.099178   3.987824   2.449496   4.001568
    16  H    3.840091   2.577231   3.502993   1.714689   3.348083
    17  H    3.002335   1.442257   2.258340   1.714520   3.450156
                   11         12         13         14         15
    11  H    0.000000
    12  H    2.982518   0.000000
    13  H    2.524790   1.714862   0.000000
    14  H    3.515859   2.239290   2.819368   0.000000
    15  H    3.135727   2.821043   2.238758   1.714621   0.000000
    16  H    1.715766   3.624424   3.192891   2.990189   2.448233
    17  H    2.336305   3.190742   3.622714   2.450164   2.990018
                   16         17
    16  H    0.000000
    17  H    1.715919   0.000000
 Stoichiometry    C5H12
 Framework group  C1[X(C5H12)]
 Deg. of freedom    45
 Full point group                 C1      NOp   1
 Largest Abelian subgroup         C1      NOp   1
 Largest concise Abelian subgroup C1      NOp   1
                         Standard orientation:                         
 ---------------------------------------------------------------------
 Center     Atomic      Atomic             Coordinates (Angstroms)
 Number     Number       Type             X           Y           Z
 ---------------------------------------------------------------------
      1          6           0        1.561601   -0.613661   -0.415921
      2          6           0        0.976618    0.397544    0.586838
      3          6           0       -0.139480    1.210738   -0.095518
      4          6           0       -1.374979    0.314506   -0.300091
      5          6           0       -1.083022   -1.095331    0.245644
      6          1           0        2.607330   -0.630891   -0.324690
      7          1           0        1.176231   -1.568992   -0.213492
      8          1           0        1.299949   -0.329769   -1.392930
      9          1           0       -1.925425   -1.706747    0.105664
     10          1           0        1.733937    1.047589    0.911151
     11          1           0        0.580178   -0.116819    1.410886
     12          1           0        0.198662    1.556716   -1.028199
     13          1           0       -0.397248    2.029213    0.508807
     14          1           0       -1.599180    0.254670   -1.322912
     15          1           0       -2.193426    0.725589    0.214955
     16          1           0       -0.861708   -1.036267    1.271476
     17          1           0       -0.263723   -1.507062   -0.266426
 ---------------------------------------------------------------------
 Rotational constants (GHZ):           6.7300374           4.1724788           3.1511842
 Standard basis: 6-31G(d) (6D, 7F)
 There are    99 symmetry adapted cartesian basis functions of A   symmetry.
 There are    99 symmetry adapted basis functions of A   symmetry.
    99 basis functions,   188 primitive gaussians,    99 cartesian basis functions
    21 alpha electrons       21 beta electrons
       nuclear repulsion energy       200.5657536744 Hartrees.
 NAtoms=   17 NActive=   17 NUniq=   17 SFac= 1.00D+00 NAtFMM=   60 NAOKFM=F Big=F
 Integral buffers will be    131072 words long.
 Raffenetti 2 integral format.
 Two-electron integral symmetry is turned on.
 Nuclear repulsion after empirical dispersion term =      200.5655261110 Hartrees.
 One-electron integrals computed using PRISM.
 NBasis=    99 RedAO= T EigKep=  2.94D-03  NBF=    99
 NBsUse=    99 1.00D-06 EigRej= -1.00D+00 NBFU=    99
 ExpMin= 1.61D-01 ExpMax= 3.05D+03 ExpMxC= 4.57D+02 IAcc=3 IRadAn=         5 AccDes= 0.00D+00
 Harris functional with IExCor= 1009 and IRadAn=       5 diagonalized for initial guess.
 HarFok:  IExCor= 1009 AccDes= 0.00D+00 IRadAn=         5 IDoV= 1 UseB2=F ITyADJ=14
 ICtDFT=  3500011 ScaDFX=  1.000000  1.000000  1.000000  1.000000
 FoFCou: FMM=F IPFlag=           0 FMFlag=      100000 FMFlg1=           0
         NFxFlg=           0 DoJE=T BraDBF=F KetDBF=T FulRan=T
         wScrn=  0.000000 ICntrl=       500 IOpCl=  0 I1Cent=   200000004 NGrid=           0
         NMat0=    1 NMatS0=      1 NMatT0=    0 NMatD0=    1 NMtDS0=    0 NMtDT0=    0
 Petite list used in FoFCou.
 Keep R1 ints in memory in canonical form, NReq=15944043.
 Requested convergence on RMS density matrix=1.00D-08 within 128 cycles.
 Requested convergence on MAX density matrix=1.00D-06.
 Requested convergence on             energy=1.00D-06.
 No special actions if energy rises.
 Integral accuracy reduced to 1.0D-05 until final iterations.
 Initial convergence to 1.0D-05 achieved.  Increase integral accuracy.
 SCF Done:  E(RM062X) =  -197.593643599     A.U. after   12 cycles
            NFock= 12  Conv=0.38D-08     -V/T= 2.0043

 **********************************************************************

            Population analysis using the SCF density.

 **********************************************************************

 Orbital symmetries:
       Occupied  (A) (A) (A) (A) (A) (A) (A) (A) (A) (A) (A) (A)
                 (A) (A) (A) (A) (A) (A) (A) (A) (A)
       Virtual   (A) (A) (A) (A) (A) (A) (A) (A) (A) (A) (A) (A)
                 (A) (A) (A) (A) (A) (A) (A) (A) (A) (A) (A) (A)
                 (A) (A) (A) (A) (A) (A) (A) (A) (A) (A) (A) (A)
                 (A) (A) (A) (A) (A) (A) (A) (A) (A) (A) (A) (A)
                 (A) (A) (A) (A) (A) (A) (A) (A) (A) (A) (A) (A)
                 (A) (A) (A) (A) (A) (A) (A) (A) (A) (A) (A) (A)
                 (A) (A) (A) (A) (A) (A)
 The electronic state is 1-A.
 Alpha  occ. eigenvalues --  -10.51975 -10.51878 -10.51800 -10.51101 -10.50382
 Alpha  occ. eigenvalues --   -0.91333  -0.83095  -0.78194  -0.70571  -0.64119
 Alpha  occ. eigenvalues --   -0.55404  -0.54463  -0.50386  -0.46935  -0.45057
 Alpha  occ. eigenvalues --   -0.42795  -0.42708  -0.40032  -0.37188  -0.36760
 Alpha  occ. eigenvalues --   -0.35680
 Alpha virt. eigenvalues --    0.13956   0.16404   0.17702   0.19705   0.20797
 Alpha virt. eigenvalues --    0.21131   0.22825   0.23790   0.25413   0.27440
 Alpha virt. eigenvalues --    0.28795   0.29155   0.30458   0.30798   0.36024
 Alpha virt. eigenvalues --    0.40216   0.55715   0.57239   0.59229   0.60074
 Alpha virt. eigenvalues --    0.62045   0.65881   0.67082   0.70249   0.72605
 Alpha virt. eigenvalues --    0.76436   0.76994   0.81209   0.88777   0.91024
 Alpha virt. eigenvalues --    0.97096   0.97286   0.97665   0.99464   1.00545
 Alpha virt. eigenvalues --    1.03373   1.04112   1.04675   1.06209   1.08739
 Alpha virt. eigenvalues --    1.10088   1.11166   1.12657   1.18111   1.37452
 Alpha virt. eigenvalues --    1.45298   1.46951   1.55966   1.60977   1.64259
 Alpha virt. eigenvalues --    1.80662   1.84678   1.91834   1.97363   2.00058
 Alpha virt. eigenvalues --    2.05191   2.06932   2.10683   2.13213   2.18461
 Alpha virt. eigenvalues --    2.22213   2.30303   2.33802   2.39468   2.41838
 Alpha virt. eigenvalues --    2.44079   2.48714   2.54430   2.58276   2.62251
 Alpha virt. eigenvalues --    2.68355   2.70627   2.79556   4.20993   4.31848
 Alpha virt. eigenvalues --    4.38006   4.49670   4.67923
          Condensed to atoms (all electrons):
               1          2          3          4          5          6
     1  C    5.170244   0.351495  -0.051926  -0.000521  -0.032290   0.380567
     2  C    0.351495   5.044437   0.399669  -0.060475  -0.019636  -0.031077
     3  C   -0.051926   0.399669   5.050642   0.357145  -0.064305   0.003697
     4  C   -0.000521  -0.060475   0.357145   5.030332   0.377587  -0.000094
     5  C   -0.032290  -0.019636  -0.064305   0.377587   5.142082   0.001863
     6  H    0.380567  -0.031077   0.003697  -0.000094   0.001863   0.536900
     7  H    0.399160  -0.037354   0.002730   0.000589  -0.024650  -0.023484
     8  H    0.396660  -0.044993  -0.009734   0.000185  -0.001755  -0.026935
     9  H    0.000713   0.001828   0.005527  -0.031461   0.381709  -0.000025
    10  H   -0.037822   0.393691  -0.036384   0.005988   0.000626  -0.007973
    11  H   -0.044757   0.399751  -0.041580  -0.011622  -0.003636   0.002068
    12  H   -0.010755  -0.039742   0.393636  -0.039382   0.003518   0.000421
    13  H    0.006000  -0.037791   0.390830  -0.036552   0.003318  -0.000193
    14  H    0.000353   0.003034  -0.037314   0.396147  -0.037478  -0.000005
    15  H   -0.000251   0.002628  -0.036171   0.397618  -0.037380   0.000006
    16  H   -0.001174  -0.009957  -0.005424  -0.036162   0.399023  -0.000118
    17  H   -0.016679  -0.010246  -0.005960  -0.034149   0.407538   0.001469
               7          8          9         10         11         12
     1  C    0.399160   0.396660   0.000713  -0.037822  -0.044757  -0.010755
     2  C   -0.037354  -0.044993   0.001828   0.393691   0.399751  -0.039742
     3  C    0.002730  -0.009734   0.005527  -0.036384  -0.041580   0.393636
     4  C    0.000589   0.000185  -0.031461   0.005988  -0.011622  -0.039382
     5  C   -0.024650  -0.001755   0.381709   0.000626  -0.003636   0.003518
     6  H   -0.023484  -0.026935  -0.000025  -0.007973   0.002068   0.000421
     7  H    0.542762  -0.036080   0.000582   0.003758  -0.008887   0.000101
     8  H   -0.036080   0.543431  -0.000019   0.001749   0.005093   0.005861
     9  H    0.000582  -0.000019   0.542897  -0.000037   0.000204  -0.000157
    10  H    0.003758   0.001749  -0.000037   0.555207  -0.031343  -0.000836
    11  H   -0.008887   0.005093   0.000204  -0.031343   0.571753   0.005586
    12  H    0.000101   0.005861  -0.000157  -0.000836   0.005586   0.563661
    13  H   -0.000252   0.000457  -0.000142  -0.003844  -0.001293  -0.032055
    14  H    0.000072   0.000146  -0.002393  -0.000142   0.000070  -0.010611
    15  H   -0.000010  -0.000008  -0.002712  -0.000171   0.000943   0.004066
    16  H    0.001810   0.000237  -0.027170   0.000361  -0.001017  -0.000202
    17  H   -0.000856   0.001494  -0.026346   0.000491  -0.000913   0.000570
              13         14         15         16         17
     1  C    0.006000   0.000353  -0.000251  -0.001174  -0.016679
     2  C   -0.037791   0.003034   0.002628  -0.009957  -0.010246
     3  C    0.390830  -0.037314  -0.036171  -0.005424  -0.005960
     4  C   -0.036552   0.396147   0.397618  -0.036162  -0.034149
     5  C    0.003318  -0.037478  -0.037380   0.399023   0.407538
     6  H   -0.000193  -0.000005   0.000006  -0.000118   0.001469
     7  H   -0.000252   0.000072  -0.000010   0.001810  -0.000856
     8  H    0.000457   0.000146  -0.000008   0.000237   0.001494
     9  H   -0.000142  -0.002393  -0.002712  -0.027170  -0.026346
    10  H   -0.003844  -0.000142  -0.000171   0.000361   0.000491
    11  H   -0.001293   0.000070   0.000943  -0.001017  -0.000913
    12  H   -0.032055  -0.010611   0.004066  -0.000202   0.000570
    13  H    0.560613   0.003900  -0.010137   0.000636  -0.000182
    14  H    0.003900   0.557556  -0.032624   0.005271  -0.005781
    15  H   -0.010137  -0.032624   0.552214  -0.005193   0.005098
    16  H    0.000636   0.005271  -0.005193   0.553956  -0.038662
    17  H   -0.000182  -0.005781   0.005098  -0.038662   0.561519
 Mulliken charges:
               1
     1  C   -0.509016
     2  C   -0.305261
     3  C   -0.315078
     4  C   -0.315172
     5  C   -0.496134
     6  H    0.162914
     7  H    0.180010
     8  H    0.164212
     9  H    0.157001
    10  H    0.156681
    11  H    0.159578
    12  H    0.156319
    13  H    0.156687
    14  H    0.159797
    15  H    0.162085
    16  H    0.163783
    17  H    0.161594
 Sum of Mulliken charges =   0.00000
 Mulliken charges with hydrogens summed into heavy atoms:
               1
     1  C   -0.001880
     2  C    0.010998
     3  C   -0.002072
     4  C    0.006710
     5  C   -0.013757
 Electronic spatial extent (au):  <R**2>=            488.8383
 Charge=              0.0000 electrons
 Dipole moment (field-independent basis, Debye):
    X=              0.0799    Y=              0.0463    Z=              0.0401  Tot=              0.1007
 Quadrupole moment (field-independent basis, Debye-Ang):
   XX=            -34.9990   YY=            -35.0486   ZZ=            -34.1202
   XY=             -0.1312   XZ=             -0.0565   YZ=              0.0292
 Traceless Quadrupole moment (field-independent basis, Debye-Ang):
   XX=             -0.2764   YY=             -0.3260   ZZ=              0.6024
   XY=             -0.1312   XZ=             -0.0565   YZ=              0.0292
 Octapole moment (field-independent basis, Debye-Ang**2):
  XXX=              0.8309  YYY=              0.3567  ZZZ=             -0.5826  XYY=              0.0875
  XXY=              1.1125  XXZ=              0.8334  XZZ=             -0.7223  YZZ=              0.6039
  YYZ=              0.4565  XYZ=             -0.7837
 Hexadecapole moment (field-independent basis, Debye-Ang**3):
 XXXX=           -344.1815 YYYY=           -218.8596 ZZZZ=            -96.7188 XXXY=              2.0629
 XXXZ=              0.7972 YYYX=             -0.6554 YYYZ=              2.0981 ZZZX=              0.0778
 ZZZY=             -1.6769 XXYY=            -94.6208 XXZZ=            -76.4334 YYZZ=            -52.8920
 XXYZ=              1.1571 YYXZ=              0.4055 ZZXY=              0.0666
 N-N= 2.005655261110D+02 E-N=-8.578518151188D+02  KE= 1.967572921154D+02
 Calling FoFJK, ICntrl=      2127 FMM=F ISym2X=0 I1Cent= 0 IOpClX= 0 NMat=1 NMatS=1 NMatT=0.
 ***** Axes restored to original set *****
 -------------------------------------------------------------------
 Center     Atomic                   Forces (Hartrees/Bohr)
 Number     Number              X              Y              Z
 -------------------------------------------------------------------
      1        6           0.015589110    0.026926280   -0.020830744
      2        6          -0.021927385    0.000621040    0.039808132
      3        6           0.008466884   -0.033842731   -0.024588521
      4        6          -0.018714121   -0.004888643   -0.039327604
      5        6           0.017161317    0.012752923    0.038627021
      6        1          -0.027921964    0.005121930   -0.018338562
      7        1          -0.010152521   -0.023534234   -0.012616499
      8        1          -0.013437992   -0.001137645    0.030109873
      9        1           0.017362276   -0.026606512    0.011417858
     10        1          -0.009901035    0.027042511   -0.017505360
     11        1           0.017159542   -0.002833887   -0.022699752
     12        1          -0.024191393    0.013664320    0.017400388
     13        1           0.018604690    0.028479397   -0.002464776
     14        1          -0.009739905   -0.009436310    0.031083362
     15        1           0.030664427    0.006031527    0.008301777
     16        1           0.016247792   -0.001628479   -0.023667463
     17        1          -0.005269724   -0.016731486    0.005290870
 -------------------------------------------------------------------
 Cartesian Forces:  Max     0.039808132 RMS     0.020241497

 GradGradGradGradGradGradGradGradGradGradGradGradGradGradGradGradGradGrad
 Berny optimization.
 FormGI is forming the generalized inverse of G from B-inverse, IUseBI=4.
 Internal  Forces:  Max     0.166488087 RMS     0.033651097
 Search for a local minimum.
 Step number   1 out of a maximum of  102
 All quantities printed in internal units (Hartrees-Bohrs-Radians)
 Mixed Optimization -- RFO/linear search
 Second derivative matrix not updated -- first step.
 ITU=  0
     Eigenvalues ---    0.00233   0.00237   0.00241   0.00243   0.03840
     Eigenvalues ---    0.03841   0.03841   0.04895   0.04897   0.04898
     Eigenvalues ---    0.05710   0.05718   0.05725   0.05730   0.07650
     Eigenvalues ---    0.07657   0.07658   0.11697   0.11702   0.11703
     Eigenvalues ---    0.16000   0.16000   0.16000   0.16000   0.16000
     Eigenvalues ---    0.16000   0.21947   0.21949   0.21950   0.28491
     Eigenvalues ---    0.28521   0.28545   0.28557   0.39725   0.39770
     Eigenvalues ---    0.39782   0.39804   0.39839   0.39844   0.39898
     Eigenvalues ---    0.39900   0.39939   0.39958   0.39990   0.40042
 RFO step:  Lambda=-2.15186686D-01 EMin= 2.32654356D-03
 Linear search not attempted -- first point.
 Maximum step size (   0.300) exceeded in Quadratic search.
    -- Step size scaled by   0.459
 Iteration  1 RMS(Cart)=  0.23201021 RMS(Int)=  0.01067946
 Iteration  2 RMS(Cart)=  0.03470458 RMS(Int)=  0.00073817
 Iteration  3 RMS(Cart)=  0.00060690 RMS(Int)=  0.00069316
 Iteration  4 RMS(Cart)=  0.00000051 RMS(Int)=  0.00069316
 Variable       Old X    -DE/DX   Delta X   Delta X   Delta X     New X
                                 (Linear)    (Quad)   (Total)
    R1        2.90936   0.01956   0.00000   0.01793   0.01793   2.92729
    R2        1.98392   0.03348   0.00000   0.02502   0.02502   2.00894
    R3        1.98389   0.02116   0.00000   0.01582   0.01582   1.99971
    R4        1.98520   0.03267   0.00000   0.02446   0.02446   2.00966
    R5        2.91077   0.02981   0.00000   0.02737   0.02737   2.93814
    R6        1.98311   0.03366   0.00000   0.02514   0.02514   2.00825
    R7        1.98267   0.02574   0.00000   0.01922   0.01922   2.00189
    R8        2.91014   0.06765   0.00000   0.06208   0.06208   2.97222
    R9        1.98550   0.03231   0.00000   0.02420   0.02420   2.00970
   R10        1.98336   0.03389   0.00000   0.02532   0.02532   2.00868
   R11        2.90963   0.00373   0.00000   0.00342   0.00342   2.91305
   R12        1.98197   0.03361   0.00000   0.02507   0.02507   2.00704
   R13        1.98567   0.03202   0.00000   0.02399   0.02399   2.00965
   R14        1.98472   0.03368   0.00000   0.02520   0.02520   2.00993
   R15        1.98628   0.02710   0.00000   0.02032   0.02032   2.00660
   R16        1.98465   0.00865   0.00000   0.00647   0.00647   1.99113
    A1        1.90992   0.00035   0.00000  -0.00053  -0.00053   1.90938
    A2        1.90988   0.01955   0.00000   0.02440   0.02432   1.93419
    A3        1.91093   0.00366   0.00000   0.00495   0.00487   1.91580
    A4        1.91129  -0.01253   0.00000  -0.01630  -0.01630   1.89498
    A5        1.91065  -0.00462   0.00000  -0.00662  -0.00661   1.90404
    A6        1.91114  -0.00639   0.00000  -0.00589  -0.00606   1.90509
    A7        1.91085   0.05285   0.00000   0.05771   0.05750   1.96835
    A8        1.91127  -0.02680   0.00000  -0.03526  -0.03472   1.87655
    A9        1.91042  -0.00180   0.00000   0.00720   0.00641   1.91683
   A10        1.91005  -0.02039   0.00000  -0.02640  -0.02580   1.88426
   A11        1.91025  -0.00847   0.00000  -0.00205  -0.00308   1.90717
   A12        1.91095   0.00462   0.00000  -0.00119  -0.00135   1.90960
   A13        1.91020   0.16649   0.00000   0.17996   0.18076   2.09096
   A14        1.91123  -0.05478   0.00000  -0.05708  -0.05859   1.85264
   A15        1.91196  -0.04246   0.00000  -0.04229  -0.04129   1.87068
   A16        1.90913  -0.03492   0.00000  -0.02907  -0.02900   1.88013
   A17        1.91059  -0.05833   0.00000  -0.06370  -0.06347   1.84712
   A18        1.91068   0.02402   0.00000   0.01222   0.00886   1.91954
   A19        1.91100   0.13966   0.00000   0.15102   0.15159   2.06258
   A20        1.91161  -0.03671   0.00000  -0.03412  -0.03483   1.87678
   A21        1.90933  -0.04091   0.00000  -0.04293  -0.04210   1.86723
   A22        1.91129  -0.03642   0.00000  -0.03410  -0.03494   1.87635
   A23        1.90941  -0.04536   0.00000  -0.04948  -0.04904   1.86037
   A24        1.91116   0.01978   0.00000   0.00965   0.00725   1.91840
   A25        1.91104  -0.00341   0.00000  -0.00571  -0.00568   1.90536
   A26        1.91176   0.00900   0.00000   0.01188   0.01179   1.92355
   A27        1.91142   0.01036   0.00000   0.01333   0.01324   1.92467
   A28        1.90887  -0.00633   0.00000  -0.00906  -0.00904   1.89984
   A29        1.90975  -0.00820   0.00000  -0.01178  -0.01175   1.89801
   A30        1.91095  -0.00145   0.00000   0.00128   0.00108   1.91203
    D1        2.40397  -0.01285   0.00000  -0.02470  -0.02505   2.37893
    D2        0.30976  -0.00386   0.00000  -0.00613  -0.00599   0.30378
    D3       -1.78528   0.00802   0.00000   0.01251   0.01271  -1.77257
    D4       -1.78492  -0.01603   0.00000  -0.03007  -0.03046  -1.81537
    D5        2.40406  -0.00704   0.00000  -0.01150  -0.01140   2.39266
    D6        0.30901   0.00483   0.00000   0.00715   0.00730   0.31631
    D7        0.30982  -0.00964   0.00000  -0.01930  -0.01960   0.29022
    D8       -1.78439  -0.00065   0.00000  -0.00073  -0.00054  -1.78493
    D9        2.40375   0.01122   0.00000   0.01791   0.01816   2.42191
   D10        1.25631   0.02743   0.00000   0.04986   0.04945   1.30576
   D11       -0.83634   0.00181   0.00000   0.01026   0.01143  -0.82491
   D12       -2.93198   0.03217   0.00000   0.05640   0.05612  -2.87585
   D13       -2.93192   0.01447   0.00000   0.02584   0.02515  -2.90676
   D14        1.25861  -0.01114   0.00000  -0.01377  -0.01287   1.24575
   D15       -0.83702   0.01922   0.00000   0.03238   0.03183  -0.80519
   D16       -0.83772   0.00248   0.00000   0.00699   0.00637  -0.83135
   D17       -2.93037  -0.02313   0.00000  -0.03261  -0.03165  -2.96202
   D18        1.25717   0.00722   0.00000   0.01353   0.01304   1.27022
   D19        0.00013   0.00882   0.00000   0.01532   0.01449   0.01461
   D20       -2.09589  -0.00986   0.00000  -0.01476  -0.01548  -2.11138
   D21        2.09245   0.01346   0.00000   0.02062   0.01924   2.11170
   D22        2.09407   0.02201   0.00000   0.03748   0.03766   2.13173
   D23       -0.00195   0.00334   0.00000   0.00740   0.00769   0.00574
   D24       -2.09679   0.02665   0.00000   0.04278   0.04242  -2.05437
   D25       -2.09561  -0.00549   0.00000  -0.00416  -0.00308  -2.09869
   D26        2.09156  -0.02417   0.00000  -0.03425  -0.03305   2.05850
   D27       -0.00328  -0.00085   0.00000   0.00113   0.00167  -0.00161
   D28       -3.14105  -0.00494   0.00000  -0.00974  -0.01005   3.13209
   D29        1.04896  -0.00060   0.00000  -0.00242  -0.00266   1.04629
   D30       -1.04700  -0.01073   0.00000  -0.01950  -0.01987  -1.06687
   D31       -1.04484   0.01352   0.00000   0.02030   0.01995  -1.02489
   D32       -3.13801   0.01787   0.00000   0.02762   0.02733  -3.11068
   D33        1.04922   0.00774   0.00000   0.01054   0.01013   1.05934
   D34        1.04986  -0.01232   0.00000  -0.01906  -0.01840   1.03146
   D35       -1.04332  -0.00797   0.00000  -0.01173  -0.01101  -1.05433
   D36       -3.13928  -0.01810   0.00000  -0.02881  -0.02822   3.11569
         Item               Value     Threshold  Converged?
 Maximum Force            0.166488     0.000450     NO 
 RMS     Force            0.033651     0.000300     NO 
 Maximum Displacement     0.688274     0.001800     NO 
 RMS     Displacement     0.261378     0.001200     NO 
 Predicted change in Energy=-8.782253D-02
 GradGradGradGradGradGradGradGradGradGradGradGradGradGradGradGradGradGrad

                          Input orientation:                          
 ---------------------------------------------------------------------
 Center     Atomic      Atomic             Coordinates (Angstroms)
 Number     Number       Type             X           Y           Z
 ---------------------------------------------------------------------
      1          6           0       -0.220039    0.154766   -0.141614
      2          6           0        1.030030    1.060561   -0.269814
      3          6           0        1.734088    1.311321    1.093571
      4          6           0        2.594722    0.170444    1.750457
      5          6           0        2.725927   -1.167939    0.996936
      6          1           0       -1.010658    0.559313   -0.725920
      7          1           0       -0.012466   -0.823807   -0.486722
      8          1           0       -0.527685    0.108188    0.875318
      9          1           0        3.341219   -1.827314    1.560763
     10          1           0        0.707342    1.999214   -0.649516
     11          1           0        1.720776    0.626125   -0.945362
     12          1           0        0.964975    1.572676    1.779987
     13          1           0        2.395405    2.132562    0.959105
     14          1           0        2.174503   -0.039109    2.703094
     15          1           0        3.580649    0.552125    1.865432
     16          1           0        3.171882   -1.011407    0.046073
     17          1           0        1.778326   -1.611720    0.873213
 ---------------------------------------------------------------------
                    Distance matrix (angstroms):
                    1          2          3          4          5
     1  C    0.000000
     2  C    1.549055   0.000000
     3  C    2.584939   1.554799   0.000000
     4  C    3.391615   2.705931   1.572829   0.000000
     5  C    3.424115   3.073586   2.672043   1.541518   0.000000
     6  H    1.063085   2.150277   3.377824   4.391176   4.462477
     7  H    1.058202   2.164414   3.179080   3.576441   3.133443
     8  H    1.063468   2.155184   2.571144   3.243327   3.497039
     9  H    4.416932   4.127036   3.556989   2.141093   1.063607
    10  H    2.126026   1.062719   2.136763   3.558999   4.100774
    11  H    2.152894   1.059353   2.151028   2.870343   2.828695
    12  H    2.665947   2.113807   1.063488   2.150163   3.350387
    13  H    3.458873   2.126894   1.062948   2.125058   3.317225
    14  H    3.723410   3.370056   2.146670   1.062079   2.118797
    15  H    4.316405   3.365032   2.140546   1.063462   2.107951
    16  H    3.591700   2.996725   2.925674   2.152861   1.061846
    17  H    2.853736   3.001256   2.931669   2.147595   1.053658
                    6          7          8          9         10
     6  H    0.000000
     7  H    1.722389   0.000000
     8  H    1.732264   1.728935   0.000000
     9  H    5.464773   4.055419   4.380002   0.000000
    10  H    2.242917   2.917888   2.725140   5.144410   0.000000
    11  H    2.741049   2.305815   2.939169   3.863400   1.732035
    12  H    3.348074   3.440420   2.278417   4.153857   2.480080
    13  H    4.112868   4.077790   3.556623   4.115479   2.335594
    14  H    4.718209   3.946328   3.265621   2.421533   4.188952
    15  H    5.272121   4.509578   4.249213   2.410784   4.083494
    16  H    4.533958   3.234059   3.953218   1.728775   3.952421
    17  H    3.879309   2.382680   2.876764   1.721000   4.062579
                   11         12         13         14         15
    11  H    0.000000
    12  H    2.982402   0.000000
    13  H    2.520212   1.741680   0.000000
    14  H    3.736260   2.216515   2.794003   0.000000
    15  H    3.371226   2.809017   2.173479   1.740253   0.000000
    16  H    2.402116   3.815020   3.364681   2.999981   2.433472
    17  H    2.884177   3.409422   3.795762   2.445102   2.985815
                   16         17
    16  H    0.000000
    17  H    1.728159   0.000000
 Stoichiometry    C5H12
 Framework group  C1[X(C5H12)]
 Deg. of freedom    45
 Full point group                 C1      NOp   1
 Largest Abelian subgroup         C1      NOp   1
 Largest concise Abelian subgroup C1      NOp   1
                         Standard orientation:                         
 ---------------------------------------------------------------------
 Center     Atomic      Atomic             Coordinates (Angstroms)
 Number     Number       Type             X           Y           Z
 ---------------------------------------------------------------------
      1          6           0        1.776437   -0.749255   -0.362170
      2          6           0        1.168055    0.325730    0.572631
      3          6           0        0.019723    1.128933   -0.100865
      4          6           0       -1.391017    0.461501   -0.296148
      5          6           0       -1.591169   -0.979718    0.212878
      6          1           0        2.836371   -0.726544   -0.283600
      7          1           0        1.439161   -1.715657   -0.093650
      8          1           0        1.497888   -0.549707   -1.368925
      9          1           0       -2.591617   -1.283340    0.017490
     10          1           0        1.943218    1.008642    0.821878
     11          1           0        0.803703   -0.131107    1.456246
     12          1           0        0.379871    1.411486   -1.060795
     13          1           0       -0.148561    1.994225    0.493112
     14          1           0       -1.605695    0.465671   -1.336296
     15          1           0       -2.095490    1.066997    0.221583
     16          1           0       -1.416440   -1.026816    1.259190
     17          1           0       -0.934586   -1.636997   -0.284192
 ---------------------------------------------------------------------
 Rotational constants (GHZ):           7.0250265           3.1874263           2.5701201
 Standard basis: 6-31G(d) (6D, 7F)
 There are    99 symmetry adapted cartesian basis functions of A   symmetry.
 There are    99 symmetry adapted basis functions of A   symmetry.
    99 basis functions,   188 primitive gaussians,    99 cartesian basis functions
    21 alpha electrons       21 beta electrons
       nuclear repulsion energy       191.1852429229 Hartrees.
 NAtoms=   17 NActive=   17 NUniq=   17 SFac= 1.00D+00 NAtFMM=   60 NAOKFM=F Big=F
 Integral buffers will be    131072 words long.
 Raffenetti 2 integral format.
 Two-electron integral symmetry is turned on.
 Nuclear repulsion after empirical dispersion term =      191.1849361111 Hartrees.
 One-electron integrals computed using PRISM.
 NBasis=    99 RedAO= T EigKep=  3.94D-03  NBF=    99
 NBsUse=    99 1.00D-06 EigRej= -1.00D+00 NBFU=    99
 Initial guess from the checkpoint file:  "pentane_1.chk"
 B after Tr=    -0.000000   -0.000000    0.000000
         Rot=    0.998039    0.006212    0.012281    0.061071 Ang=   7.18 deg.
 ExpMin= 1.61D-01 ExpMax= 3.05D+03 ExpMxC= 4.57D+02 IAcc=2 IRadAn=         4 AccDes= 0.00D+00
 Harris functional with IExCor= 1009 and IRadAn=       4 diagonalized for initial guess.
 HarFok:  IExCor= 1009 AccDes= 0.00D+00 IRadAn=         4 IDoV= 1 UseB2=F ITyADJ=14
 ICtDFT=  3500011 ScaDFX=  1.000000  1.000000  1.000000  1.000000
 FoFCou: FMM=F IPFlag=           0 FMFlag=      100000 FMFlg1=           0
         NFxFlg=           0 DoJE=T BraDBF=F KetDBF=T FulRan=T
         wScrn=  0.000000 ICntrl=       500 IOpCl=  0 I1Cent=   200000004 NGrid=           0
         NMat0=    1 NMatS0=      1 NMatT0=    0 NMatD0=    1 NMtDS0=    0 NMtDT0=    0
 Petite list used in FoFCou.
 Keep R1 ints in memory in canonical form, NReq=15944043.
 Requested convergence on RMS density matrix=1.00D-08 within 128 cycles.
 Requested convergence on MAX density matrix=1.00D-06.
 Requested convergence on             energy=1.00D-06.
 No special actions if energy rises.
 Integral accuracy reduced to 1.0D-05 until final iterations.
 Initial convergence to 1.0D-05 achieved.  Increase integral accuracy.
 SCF Done:  E(RM062X) =  -197.625362276     A.U. after   12 cycles
            NFock= 12  Conv=0.40D-08     -V/T= 2.0069
 Calling FoFJK, ICntrl=      2127 FMM=F ISym2X=0 I1Cent= 0 IOpClX= 0 NMat=1 NMatS=1 NMatT=0.
 ***** Axes restored to original set *****
 -------------------------------------------------------------------
 Center     Atomic                   Forces (Hartrees/Bohr)
 Number     Number              X              Y              Z
 -------------------------------------------------------------------
      1        6           0.025119368    0.019337153   -0.003716555
      2        6          -0.008625884   -0.017937976    0.037478487
      3        6           0.004898482   -0.030131437   -0.019058282
      4        6          -0.017597286   -0.004474383   -0.032388369
      5        6          -0.000732112    0.031898149    0.013487833
      6        1          -0.018432585    0.005125048   -0.011032606
      7        1           0.002694781   -0.024783276   -0.006530581
      8        1          -0.009305840   -0.002456589    0.020397091
      9        1           0.012721010   -0.014322194    0.010268529
     10        1          -0.001757779    0.020989397   -0.008946117
     11        1           0.015990255   -0.006910762   -0.019589089
     12        1          -0.013411288    0.011575902    0.015296915
     13        1           0.009585419    0.021496004   -0.000277053
     14        1          -0.003986387   -0.003224970    0.022915113
     15        1           0.019441644    0.007618794    0.009013006
     16        1           0.009249539    0.000734883   -0.021807676
     17        1          -0.025851339   -0.014533744   -0.005510645
 -------------------------------------------------------------------
 Cartesian Forces:  Max     0.037478487 RMS     0.016377403

 GradGradGradGradGradGradGradGradGradGradGradGradGradGradGradGradGradGrad
 Berny optimization.
 Using GEDIIS/GDIIS optimizer.
 FormGI is forming the generalized inverse of G from B-inverse, IUseBI=4.
 Internal  Forces:  Max     0.030018122 RMS     0.009767343
 Search for a local minimum.
 Step number   2 out of a maximum of  102
 All quantities printed in internal units (Hartrees-Bohrs-Radians)
 Mixed Optimization -- RFO/linear search
 Update second derivatives using D2CorX and points    1    2
 DE= -3.17D-02 DEPred=-8.78D-02 R= 3.61D-01
 Trust test= 3.61D-01 RLast= 3.31D-01 DXMaxT set to 3.00D-01
 ITU=  0  0
 Use linear search instead of GDIIS.
     Eigenvalues ---    0.00235   0.00239   0.00241   0.00244   0.02943
     Eigenvalues ---    0.03088   0.03638   0.04714   0.04822   0.04949
     Eigenvalues ---    0.05557   0.05611   0.05698   0.05724   0.08184
     Eigenvalues ---    0.09047   0.09309   0.12122   0.12718   0.12930
     Eigenvalues ---    0.15980   0.16000   0.16000   0.16000   0.16000
     Eigenvalues ---    0.16027   0.22025   0.22186   0.27961   0.28486
     Eigenvalues ---    0.28543   0.28550   0.36069   0.39614   0.39736
     Eigenvalues ---    0.39775   0.39793   0.39823   0.39868   0.39893
     Eigenvalues ---    0.39921   0.39950   0.39977   0.40028   1.01576
 RFO step:  Lambda=-1.88053377D-02 EMin= 2.35236618D-03
 Quartic linear search produced a step of -0.07776.
 Iteration  1 RMS(Cart)=  0.05135836 RMS(Int)=  0.00091528
 Iteration  2 RMS(Cart)=  0.00096273 RMS(Int)=  0.00012800
 Iteration  3 RMS(Cart)=  0.00000077 RMS(Int)=  0.00012800
 Variable       Old X    -DE/DX   Delta X   Delta X   Delta X     New X
                                 (Linear)    (Quad)   (Total)
    R1        2.92729   0.00149  -0.00139   0.01105   0.00965   2.93694
    R2        2.00894   0.02172  -0.00195   0.05755   0.05560   2.06454
    R3        1.99971   0.02558  -0.00123   0.06245   0.06122   2.06093
    R4        2.00966   0.02230  -0.00190   0.05871   0.05681   2.06648
    R5        2.93814  -0.00857  -0.00213  -0.01597  -0.01809   2.92005
    R6        2.00825   0.02227  -0.00195   0.05873   0.05677   2.06502
    R7        2.00189   0.02575  -0.00149   0.06404   0.06254   2.06443
    R8        2.97222  -0.00806  -0.00483  -0.00170  -0.00653   2.96569
    R9        2.00970   0.02242  -0.00188   0.05889   0.05701   2.06671
   R10        2.00868   0.02261  -0.00197   0.05956   0.05759   2.06627
   R11        2.91305  -0.00193  -0.00027  -0.00458  -0.00484   2.90820
   R12        2.00704   0.02277  -0.00195   0.05970   0.05775   2.06479
   R13        2.00965   0.02173  -0.00187   0.05731   0.05544   2.06510
   R14        2.00993   0.02168  -0.00196   0.05759   0.05563   2.06556
   R15        2.00660   0.02352  -0.00158   0.05989   0.05831   2.06490
   R16        1.99113   0.03002  -0.00050   0.06868   0.06817   2.05930
    A1        1.90938   0.00449   0.00004   0.02486   0.02465   1.93403
    A2        1.93419   0.00246  -0.00189   0.01954   0.01747   1.95167
    A3        1.91580   0.00303  -0.00038   0.01559   0.01507   1.93087
    A4        1.89498  -0.00317   0.00127  -0.01844  -0.01745   1.87753
    A5        1.90404  -0.00371   0.00051  -0.02014  -0.01982   1.88421
    A6        1.90509  -0.00328   0.00047  -0.02249  -0.02208   1.88300
    A7        1.96835   0.00073  -0.00447   0.02708   0.02246   1.99081
    A8        1.87655   0.00355   0.00270   0.02564   0.02829   1.90484
    A9        1.91683  -0.00096  -0.00050  -0.00910  -0.00942   1.90741
   A10        1.88426  -0.00221   0.00201  -0.01541  -0.01406   1.87020
   A11        1.90717   0.00092   0.00024  -0.00439  -0.00411   1.90306
   A12        1.90960  -0.00212   0.00010  -0.02511  -0.02505   1.88456
   A13        2.09096  -0.01791  -0.01406  -0.00500  -0.01906   2.07191
   A14        1.85264   0.00644   0.00456   0.00181   0.00649   1.85914
   A15        1.87068   0.00423   0.00321   0.00262   0.00587   1.87655
   A16        1.88013   0.00494   0.00226   0.00278   0.00503   1.88515
   A17        1.84712   0.00787   0.00494   0.02090   0.02587   1.87299
   A18        1.91954  -0.00575  -0.00069  -0.02671  -0.02717   1.89237
   A19        2.06258  -0.01359  -0.01179   0.00239  -0.00943   2.05316
   A20        1.87678   0.00501   0.00271   0.00561   0.00838   1.88516
   A21        1.86723   0.00433   0.00327   0.00708   0.01030   1.87753
   A22        1.87635   0.00410   0.00272  -0.00019   0.00262   1.87897
   A23        1.86037   0.00505   0.00381   0.00960   0.01339   1.87377
   A24        1.91840  -0.00508  -0.00056  -0.02782  -0.02817   1.89023
   A25        1.90536   0.00095   0.00044   0.00445   0.00484   1.91020
   A26        1.92355   0.00299  -0.00092   0.01772   0.01671   1.94026
   A27        1.92467   0.00314  -0.00103   0.02009   0.01895   1.94361
   A28        1.89984  -0.00211   0.00070  -0.01343  -0.01276   1.88708
   A29        1.89801  -0.00183   0.00091  -0.01055  -0.00971   1.88830
   A30        1.91203  -0.00326  -0.00008  -0.01902  -0.01924   1.89278
    D1        2.37893  -0.00000   0.00195   0.02556   0.02771   2.40663
    D2        0.30378  -0.00001   0.00047   0.01180   0.01202   0.31580
    D3       -1.77257   0.00099  -0.00099   0.03203   0.03104  -1.74153
    D4       -1.81537   0.00047   0.00237   0.03076   0.03340  -1.78197
    D5        2.39266   0.00045   0.00089   0.01700   0.01771   2.41038
    D6        0.31631   0.00145  -0.00057   0.03723   0.03673   0.35305
    D7        0.29022  -0.00006   0.00152   0.02546   0.02717   0.31739
    D8       -1.78493  -0.00007   0.00004   0.01170   0.01148  -1.77345
    D9        2.42191   0.00093  -0.00141   0.03193   0.03050   2.45241
   D10        1.30576  -0.00237  -0.00384  -0.05584  -0.05958   1.24618
   D11       -0.82491  -0.00200  -0.00089  -0.05764  -0.05854  -0.88345
   D12       -2.87585  -0.00065  -0.00436  -0.02898  -0.03324  -2.90910
   D13       -2.90676   0.00100  -0.00196  -0.01797  -0.02002  -2.92678
   D14        1.24575   0.00137   0.00100  -0.01976  -0.01897   1.22678
   D15       -0.80519   0.00273  -0.00247   0.00890   0.00633  -0.79887
   D16       -0.83135  -0.00230  -0.00050  -0.05949  -0.05987  -0.89122
   D17       -2.96202  -0.00193   0.00246  -0.06128  -0.05883  -3.02085
   D18        1.27022  -0.00057  -0.00101  -0.03262  -0.03353   1.23669
   D19        0.01461  -0.00026  -0.00113  -0.00261  -0.00370   0.01091
   D20       -2.11138  -0.00030   0.00120  -0.00868  -0.00744  -2.11882
   D21        2.11170   0.00080  -0.00150   0.01724   0.01582   2.12752
   D22        2.13173  -0.00016  -0.00293  -0.00136  -0.00432   2.12741
   D23        0.00574  -0.00020  -0.00060  -0.00743  -0.00805  -0.00232
   D24       -2.05437   0.00090  -0.00330   0.01849   0.01521  -2.03916
   D25       -2.09869  -0.00040   0.00024  -0.02029  -0.02010  -2.11879
   D26        2.05850  -0.00045   0.00257  -0.02635  -0.02383   2.03467
   D27       -0.00161   0.00066  -0.00013  -0.00043  -0.00057  -0.00218
   D28        3.13209  -0.00011   0.00078   0.00234   0.00313   3.13522
   D29        1.04629   0.00007   0.00021   0.00528   0.00554   1.05183
   D30       -1.06687   0.00014   0.00154   0.00437   0.00592  -1.06095
   D31       -1.02489   0.00040  -0.00155   0.01136   0.00983  -1.01506
   D32       -3.11068   0.00058  -0.00213   0.01430   0.01223  -3.09845
   D33        1.05934   0.00065  -0.00079   0.01338   0.01261   1.07195
   D34        1.03146  -0.00086   0.00143  -0.01616  -0.01479   1.01667
   D35       -1.05433  -0.00068   0.00086  -0.01322  -0.01239  -1.06672
   D36        3.11569  -0.00060   0.00219  -0.01413  -0.01201   3.10368
         Item               Value     Threshold  Converged?
 Maximum Force            0.030018     0.000450     NO 
 RMS     Force            0.009767     0.000300     NO 
 Maximum Displacement     0.175799     0.001800     NO 
 RMS     Displacement     0.051528     0.001200     NO 
 Predicted change in Energy=-1.069184D-02
 GradGradGradGradGradGradGradGradGradGradGradGradGradGradGradGradGradGrad

                          Input orientation:                          
 ---------------------------------------------------------------------
 Center     Atomic      Atomic             Coordinates (Angstroms)
 Number     Number       Type             X           Y           Z
 ---------------------------------------------------------------------
      1          6           0       -0.182254    0.118138   -0.141001
      2          6           0        1.038642    1.073917   -0.247407
      3          6           0        1.751424    1.337796    1.097965
      4          6           0        2.593635    0.182036    1.744367
      5          6           0        2.672529   -1.154366    0.985298
      6          1           0       -1.014468    0.482446   -0.747857
      7          1           0        0.059710   -0.888372   -0.484209
      8          1           0       -0.526230    0.046289    0.894534
      9          1           0        3.293211   -1.856401    1.548015
     10          1           0        0.704077    2.041264   -0.630075
     11          1           0        1.759088    0.661321   -0.957453
     12          1           0        0.973950    1.628668    1.810010
     13          1           0        2.423214    2.188286    0.953257
     14          1           0        2.180998   -0.023361    2.735024
     15          1           0        3.615984    0.547879    1.867557
     16          1           0        3.120195   -1.021238   -0.002561
     17          1           0        1.685297   -1.598303    0.859536
 ---------------------------------------------------------------------
                    Distance matrix (angstroms):
                    1          2          3          4          5
     1  C    0.000000
     2  C    1.554163   0.000000
     3  C    2.600329   1.545223   0.000000
     4  C    3.356226   2.679667   1.569375   0.000000
     5  C    3.322289   3.025623   2.659324   1.538954   0.000000
     6  H    1.092509   2.194436   3.433488   4.395433   4.390550
     7  H    1.090596   2.205666   3.212630   3.540211   3.009489
     8  H    1.093532   2.192913   2.626229   3.236387   3.417875
     9  H    4.339405   4.110156   3.575269   2.164067   1.093046
    10  H    2.173291   1.092762   2.139608   3.558810   4.086109
    11  H    2.174961   1.092449   2.163890   2.868103   2.811651
    12  H    2.724877   2.131877   1.093655   2.172656   3.363124
    13  H    3.503053   2.144867   1.093424   2.163316   3.352090
    14  H    3.725118   3.376965   2.171922   1.092639   2.140635
    15  H    4.318055   3.375275   2.166294   1.092802   2.136850
    16  H    3.496214   2.963526   2.941043   2.185610   1.092700
    17  H    2.726718   2.963822   2.946506   2.185774   1.089735
                    6          7          8          9         10
     6  H    0.000000
     7  H    1.761394   0.000000
     8  H    1.768066   1.765743   0.000000
     9  H    5.412701   3.939866   4.316874   0.000000
    10  H    2.323185   3.003208   2.796071   5.161345   0.000000
    11  H    2.787210   2.348062   3.005129   3.869086   1.767616
    12  H    3.436614   3.526296   2.364859   4.194439   2.489394
    13  H    4.197778   4.137425   3.645658   4.179728   2.341791
    14  H    4.753663   3.951147   3.274346   2.450723   4.215194
    15  H    5.318436   4.498967   4.284426   2.446804   4.116742
    16  H    4.462283   3.101001   3.903948   1.769666   3.950989
    17  H    3.768549   2.225351   2.756222   1.768051   4.053169
                   11         12         13         14         15
    11  H    0.000000
    12  H    3.034972   0.000000
    13  H    2.534462   1.774138   0.000000
    14  H    3.779046   2.245399   2.850394   0.000000
    15  H    3.382546   2.855129   2.224766   1.771440   0.000000
    16  H    2.365467   3.861837   3.420587   3.061409   2.491039
    17  H    2.900482   3.438424   3.858958   2.498723   3.057736
                   16         17
    16  H    0.000000
    17  H    1.770634   0.000000
 Stoichiometry    C5H12
 Framework group  C1[X(C5H12)]
 Deg. of freedom    45
 Full point group                 C1      NOp   1
 Largest Abelian subgroup         C1      NOp   1
 Largest concise Abelian subgroup C1      NOp   1
                         Standard orientation:                         
 ---------------------------------------------------------------------
 Center     Atomic      Atomic             Coordinates (Angstroms)
 Number     Number       Type             X           Y           Z
 ---------------------------------------------------------------------
      1          6           0        1.740062   -0.762683   -0.348497
      2          6           0        1.154977    0.364366    0.547528
      3          6           0       -0.000997    1.153604   -0.107104
      4          6           0       -1.390317    0.446086   -0.286388
      5          6           0       -1.524743   -1.001409    0.218656
      6          1           0        2.830785   -0.779527   -0.288370
      7          1           0        1.378528   -1.747184   -0.049415
      8          1           0        1.462444   -0.606446   -1.394599
      9          1           0       -2.541217   -1.358354    0.033943
     10          1           0        1.944508    1.083021    0.780562
     11          1           0        0.804037   -0.067598    1.487577
     12          1           0        0.352422    1.460200   -1.095625
     13          1           0       -0.168253    2.051566    0.493950
     14          1           0       -1.636523    0.449885   -1.350920
     15          1           0       -2.136495    1.045883    0.240562
     16          1           0       -1.332380   -1.064136    1.292460
     17          1           0       -0.831747   -1.667094   -0.295291
 ---------------------------------------------------------------------
 Rotational constants (GHZ):           6.7877553           3.2975580           2.6025678
 Standard basis: 6-31G(d) (6D, 7F)
 There are    99 symmetry adapted cartesian basis functions of A   symmetry.
 There are    99 symmetry adapted basis functions of A   symmetry.
    99 basis functions,   188 primitive gaussians,    99 cartesian basis functions
    21 alpha electrons       21 beta electrons
       nuclear repulsion energy       190.2558502384 Hartrees.
 NAtoms=   17 NActive=   17 NUniq=   17 SFac= 1.00D+00 NAtFMM=   60 NAOKFM=F Big=F
 Integral buffers will be    131072 words long.
 Raffenetti 2 integral format.
 Two-electron integral symmetry is turned on.
 Nuclear repulsion after empirical dispersion term =      190.2555409217 Hartrees.
 One-electron integrals computed using PRISM.
 NBasis=    99 RedAO= T EigKep=  3.98D-03  NBF=    99
 NBsUse=    99 1.00D-06 EigRej= -1.00D+00 NBFU=    99
 Initial guess from the checkpoint file:  "pentane_1.chk"
 B after Tr=     0.000000    0.000000   -0.000000
         Rot=    0.999954    0.006787   -0.003208   -0.005906 Ang=   1.09 deg.
 ExpMin= 1.61D-01 ExpMax= 3.05D+03 ExpMxC= 4.57D+02 IAcc=2 IRadAn=         4 AccDes= 0.00D+00
 Harris functional with IExCor= 1009 and IRadAn=       4 diagonalized for initial guess.
 HarFok:  IExCor= 1009 AccDes= 0.00D+00 IRadAn=         4 IDoV= 1 UseB2=F ITyADJ=14
 ICtDFT=  3500011 ScaDFX=  1.000000  1.000000  1.000000  1.000000
 FoFCou: FMM=F IPFlag=           0 FMFlag=      100000 FMFlg1=           0
         NFxFlg=           0 DoJE=T BraDBF=F KetDBF=T FulRan=T
         wScrn=  0.000000 ICntrl=       500 IOpCl=  0 I1Cent=   200000004 NGrid=           0
         NMat0=    1 NMatS0=      1 NMatT0=    0 NMatD0=    1 NMtDS0=    0 NMtDT0=    0
 Petite list used in FoFCou.
 Keep R1 ints in memory in canonical form, NReq=15944043.
 Requested convergence on RMS density matrix=1.00D-08 within 128 cycles.
 Requested convergence on MAX density matrix=1.00D-06.
 Requested convergence on             energy=1.00D-06.
 No special actions if energy rises.
 Integral accuracy reduced to 1.0D-05 until final iterations.
 Initial convergence to 1.0D-05 achieved.  Increase integral accuracy.
 SCF Done:  E(RM062X) =  -197.636046980     A.U. after   11 cycles
            NFock= 11  Conv=0.54D-08     -V/T= 2.0095
 Calling FoFJK, ICntrl=      2127 FMM=F ISym2X=0 I1Cent= 0 IOpClX= 0 NMat=1 NMatS=1 NMatT=0.
 ***** Axes restored to original set *****
 -------------------------------------------------------------------
 Center     Atomic                   Forces (Hartrees/Bohr)
 Number     Number              X              Y              Z
 -------------------------------------------------------------------
      1        6           0.006976463    0.006707938   -0.001027804
      2        6          -0.001454652   -0.009580698    0.009652307
      3        6           0.001043680   -0.009544164   -0.003861279
      4        6          -0.006754129   -0.000309785   -0.009294183
      5        6          -0.000621298    0.008386798    0.002013805
      6        1          -0.000890653   -0.000760592   -0.000189417
      7        1          -0.000029580   -0.001471565    0.000239732
      8        1          -0.001442847   -0.000175357    0.000746180
      9        1           0.000331194   -0.000940675   -0.000682992
     10        1           0.000806716    0.000590996   -0.001691271
     11        1           0.000469000    0.002243090   -0.003910545
     12        1           0.001105297    0.004790337    0.001372009
     13        1          -0.002076156    0.002876429    0.001579492
     14        1           0.003160188    0.000495048    0.002516017
     15        1           0.000635288   -0.000402457    0.004390058
     16        1           0.000168291   -0.001033108   -0.001375193
     17        1          -0.001426803   -0.001872234   -0.000476916
 -------------------------------------------------------------------
 Cartesian Forces:  Max     0.009652307 RMS     0.003742220

 GradGradGradGradGradGradGradGradGradGradGradGradGradGradGradGradGradGrad
 Berny optimization.
 Using GEDIIS/GDIIS optimizer.
 FormGI is forming the generalized inverse of G from B-inverse, IUseBI=4.
 Internal  Forces:  Max     0.008619947 RMS     0.002178690
 Search for a local minimum.
 Step number   3 out of a maximum of  102
 All quantities printed in internal units (Hartrees-Bohrs-Radians)
 Mixed Optimization -- RFO/linear search
 Update second derivatives using D2CorX and points    1    2    3
 DE= -1.07D-02 DEPred=-1.07D-02 R= 9.99D-01
 TightC=F SS=  1.41D+00  RLast= 2.77D-01 DXNew= 5.0454D-01 8.3184D-01
 Trust test= 9.99D-01 RLast= 2.77D-01 DXMaxT set to 5.05D-01
 ITU=  1  0  0
 Use linear search instead of GDIIS.
     Eigenvalues ---    0.00236   0.00239   0.00241   0.00248   0.02986
     Eigenvalues ---    0.03079   0.03491   0.04688   0.04732   0.04807
     Eigenvalues ---    0.05371   0.05429   0.05489   0.05613   0.08473
     Eigenvalues ---    0.09018   0.09184   0.12333   0.12700   0.12852
     Eigenvalues ---    0.15738   0.16000   0.16000   0.16000   0.16011
     Eigenvalues ---    0.16028   0.21962   0.22105   0.27623   0.28296
     Eigenvalues ---    0.28525   0.28603   0.38497   0.39735   0.39773
     Eigenvalues ---    0.39791   0.39811   0.39868   0.39891   0.39916
     Eigenvalues ---    0.39946   0.39966   0.40027   0.40708   1.03145
 RFO step:  Lambda=-2.19058667D-03 EMin= 2.36208167D-03
 Quartic linear search produced a step of  0.13110.
 Iteration  1 RMS(Cart)=  0.05272760 RMS(Int)=  0.00156491
 Iteration  2 RMS(Cart)=  0.00188098 RMS(Int)=  0.00009418
 Iteration  3 RMS(Cart)=  0.00000245 RMS(Int)=  0.00009416
 Iteration  4 RMS(Cart)=  0.00000000 RMS(Int)=  0.00009416
 Variable       Old X    -DE/DX   Delta X   Delta X   Delta X     New X
                                 (Linear)    (Quad)   (Total)
    R1        2.93694  -0.00629   0.00127  -0.02379  -0.02253   2.91442
    R2        2.06454   0.00053   0.00729  -0.00309   0.00420   2.06875
    R3        2.06093   0.00128   0.00803  -0.00202   0.00600   2.06693
    R4        2.06648   0.00117   0.00745  -0.00148   0.00597   2.07245
    R5        2.92005  -0.00495  -0.00237  -0.01537  -0.01775   2.90230
    R6        2.06502   0.00087   0.00744  -0.00228   0.00516   2.07018
    R7        2.06443   0.00200   0.00820  -0.00004   0.00816   2.07259
    R8        2.96569  -0.00680  -0.00086  -0.02150  -0.02236   2.94333
    R9        2.06671   0.00138   0.00747  -0.00093   0.00655   2.07325
   R10        2.06627   0.00075   0.00755  -0.00267   0.00488   2.07115
   R11        2.90820  -0.00377  -0.00064  -0.01363  -0.01426   2.89394
   R12        2.06479   0.00100   0.00757  -0.00204   0.00553   2.07031
   R13        2.06510   0.00095   0.00727  -0.00195   0.00532   2.07041
   R14        2.06556   0.00044   0.00729  -0.00332   0.00397   2.06953
   R15        2.06490   0.00119   0.00764  -0.00176   0.00588   2.07079
   R16        2.05930   0.00211   0.00894  -0.00086   0.00807   2.06737
    A1        1.93403   0.00117   0.00323   0.00486   0.00803   1.94206
    A2        1.95167   0.00029   0.00229   0.00309   0.00533   1.95700
    A3        1.93087   0.00097   0.00198   0.00546   0.00739   1.93826
    A4        1.87753  -0.00070  -0.00229  -0.00458  -0.00693   1.87061
    A5        1.88421  -0.00113  -0.00260  -0.00716  -0.00980   1.87441
    A6        1.88300  -0.00072  -0.00290  -0.00247  -0.00540   1.87760
    A7        1.99081  -0.00112   0.00295   0.00448   0.00708   1.99790
    A8        1.90484   0.00049   0.00371  -0.01131  -0.00753   1.89731
    A9        1.90741   0.00061  -0.00123   0.01850   0.01680   1.92421
   A10        1.87020   0.00047  -0.00184  -0.00485  -0.00668   1.86352
   A11        1.90306   0.00119  -0.00054   0.02324   0.02229   1.92535
   A12        1.88456  -0.00172  -0.00328  -0.03312  -0.03623   1.84833
   A13        2.07191  -0.00862  -0.00250  -0.01818  -0.02059   2.05131
   A14        1.85914   0.00338   0.00085   0.02019   0.02111   1.88025
   A15        1.87655   0.00216   0.00077   0.00398   0.00486   1.88141
   A16        1.88515   0.00283   0.00066   0.02144   0.02216   1.90731
   A17        1.87299   0.00372   0.00339   0.01404   0.01747   1.89046
   A18        1.89237  -0.00348  -0.00356  -0.04676  -0.05030   1.84208
   A19        2.05316  -0.00713  -0.00124  -0.01406  -0.01528   2.03787
   A20        1.88516   0.00304   0.00110   0.02320   0.02430   1.90946
   A21        1.87753   0.00266   0.00135   0.01062   0.01201   1.88954
   A22        1.87897   0.00231   0.00034   0.01560   0.01595   1.89492
   A23        1.87377   0.00230   0.00176   0.00446   0.00628   1.88004
   A24        1.89023  -0.00320  -0.00369  -0.04454  -0.04818   1.84205
   A25        1.91020   0.00103   0.00063   0.00441   0.00502   1.91522
   A26        1.94026   0.00130   0.00219   0.00920   0.01132   1.95158
   A27        1.94361   0.00104   0.00248   0.00705   0.00946   1.95308
   A28        1.88708  -0.00121  -0.00167  -0.00884  -0.01054   1.87654
   A29        1.88830  -0.00112  -0.00127  -0.00945  -0.01074   1.87756
   A30        1.89278  -0.00120  -0.00252  -0.00340  -0.00603   1.88676
    D1        2.40663  -0.00006   0.00363   0.03040   0.03399   2.44062
    D2        0.31580  -0.00028   0.00158   0.04172   0.04326   0.35906
    D3       -1.74153   0.00116   0.00407   0.07756   0.08171  -1.65983
    D4       -1.78197   0.00003   0.00438   0.02997   0.03431  -1.74766
    D5        2.41038  -0.00018   0.00232   0.04129   0.04358   2.45396
    D6        0.35305   0.00125   0.00482   0.07713   0.08203   0.43508
    D7        0.31739  -0.00003   0.00356   0.03264   0.03615   0.35354
    D8       -1.77345  -0.00025   0.00151   0.04396   0.04543  -1.72802
    D9        2.45241   0.00119   0.00400   0.07980   0.08387   2.53628
   D10        1.24618   0.00004  -0.00781   0.04905   0.04133   1.28751
   D11       -0.88345  -0.00059  -0.00767   0.01625   0.00868  -0.87477
   D12       -2.90910   0.00071  -0.00436   0.05832   0.05408  -2.85501
   D13       -2.92678   0.00028  -0.00262   0.03417   0.03154  -2.89524
   D14        1.22678  -0.00034  -0.00249   0.00136  -0.00112   1.22566
   D15       -0.79887   0.00095   0.00083   0.04343   0.04429  -0.75458
   D16       -0.89122  -0.00087  -0.00785   0.00457  -0.00341  -0.89463
   D17       -3.02085  -0.00149  -0.00771  -0.02823  -0.03606  -3.05691
   D18        1.23669  -0.00020  -0.00440   0.01384   0.00935   1.24603
   D19        0.01091  -0.00010  -0.00049   0.05464   0.05414   0.06505
   D20       -2.11882  -0.00061  -0.00098   0.02477   0.02376  -2.09506
   D21        2.12752   0.00017   0.00207   0.05940   0.06145   2.18897
   D22        2.12741   0.00068  -0.00057   0.08680   0.08624   2.21365
   D23       -0.00232   0.00017  -0.00106   0.05693   0.05585   0.05354
   D24       -2.03916   0.00095   0.00199   0.09156   0.09354  -1.94562
   D25       -2.11879   0.00000  -0.00263   0.05040   0.04781  -2.07098
   D26        2.03467  -0.00051  -0.00312   0.02053   0.01742   2.05209
   D27       -0.00218   0.00027  -0.00007   0.05516   0.05511   0.05293
   D28        3.13522  -0.00031   0.00041  -0.06370  -0.06329   3.07193
   D29        1.05183  -0.00029   0.00073  -0.06130  -0.06056   0.99128
   D30       -1.06095  -0.00038   0.00078  -0.06816  -0.06741  -1.12836
   D31       -1.01506   0.00059   0.00129  -0.02995  -0.02865  -1.04371
   D32       -3.09845   0.00062   0.00160  -0.02755  -0.02592  -3.12437
   D33        1.07195   0.00053   0.00165  -0.03441  -0.03277   1.03918
   D34        1.01667  -0.00078  -0.00194  -0.07167  -0.07362   0.94305
   D35       -1.06672  -0.00076  -0.00162  -0.06927  -0.07088  -1.13760
   D36        3.10368  -0.00085  -0.00157  -0.07613  -0.07773   3.02595
         Item               Value     Threshold  Converged?
 Maximum Force            0.008620     0.000450     NO 
 RMS     Force            0.002179     0.000300     NO 
 Maximum Displacement     0.179010     0.001800     NO 
 RMS     Displacement     0.052730     0.001200     NO 
 Predicted change in Energy=-1.319615D-03
 GradGradGradGradGradGradGradGradGradGradGradGradGradGradGradGradGradGrad

                          Input orientation:                          
 ---------------------------------------------------------------------
 Center     Atomic      Atomic             Coordinates (Angstroms)
 Number     Number       Type             X           Y           Z
 ---------------------------------------------------------------------
      1          6           0       -0.193989    0.131772   -0.122572
      2          6           0        1.053582    1.031438   -0.235181
      3          6           0        1.749449    1.324469    1.102236
      4          6           0        2.572573    0.173380    1.752927
      5          6           0        2.688195   -1.128310    0.954527
      6          1           0       -0.993632    0.476780   -0.785882
      7          1           0        0.021561   -0.906802   -0.389480
      8          1           0       -0.591411    0.135427    0.899569
      9          1           0        3.345098   -1.828304    1.481629
     10          1           0        0.752998    1.998215   -0.653626
     11          1           0        1.766988    0.603418   -0.949847
     12          1           0        0.983642    1.666769    1.809371
     13          1           0        2.415317    2.182050    0.952568
     14          1           0        2.157100   -0.058352    2.739811
     15          1           0        3.587572    0.540711    1.940600
     16          1           0        3.116266   -0.959424   -0.039977
     17          1           0        1.717693   -1.617239    0.828328
 ---------------------------------------------------------------------
                    Distance matrix (angstroms):
                    1          2          3          4          5
     1  C    0.000000
     2  C    1.542243   0.000000
     3  C    2.588364   1.535833   0.000000
     4  C    3.342618   2.645028   1.557542   0.000000
     5  C    3.324896   2.958357   2.630435   1.531408   0.000000
     6  H    1.094733   2.191348   3.436286   4.388101   4.377350
     7  H    1.093772   2.201284   3.192081   3.502052   2.994388
     8  H    1.096691   2.190091   2.633348   3.277264   3.515092
     9  H    4.352067   4.046801   3.553872   2.162668   1.095148
    10  H    2.159262   1.095493   2.128356   3.525957   4.013266
    11  H    2.179968   1.096766   2.175148   2.852874   2.733888
    12  H    2.734123   2.142132   1.097119   2.181307   3.383597
    13  H    3.488272   2.142190   1.096005   2.167962   3.321589
    14  H    3.709044   3.354993   2.181748   1.095563   2.148048
    15  H    4.327136   3.375787   2.166986   1.095616   2.137019
    16  H    3.486447   2.873377   2.896378   2.189373   1.095813
    17  H    2.760032   2.930458   2.954603   2.189069   1.094007
                    6          7          8          9         10
     6  H    0.000000
     7  H    1.761263   0.000000
     8  H    1.766083   1.767378   0.000000
     9  H    5.411062   3.923788   4.437470   0.000000
    10  H    2.320125   3.007308   2.773055   5.091222   0.000000
    11  H    2.768383   2.375140   3.033382   3.783620   1.749680
    12  H    3.472899   3.519064   2.377717   4.230771   2.495878
    13  H    4.189402   4.131848   3.637567   4.150583   2.318826
    14  H    4.758571   3.882379   3.313361   2.475295   4.209084
    15  H    5.331531   4.499000   4.325726   2.425217   4.109639
    16  H    4.417048   3.114823   3.978482   1.767089   3.835261
    17  H    3.787066   2.205593   2.899806   1.766295   4.024715
                   11         12         13         14         15
    11  H    0.000000
    12  H    3.059025   0.000000
    13  H    2.555698   1.746231   0.000000
    14  H    3.768781   2.284463   2.877555   0.000000
    15  H    3.416599   2.840014   2.245971   1.744667   0.000000
    16  H    2.256300   3.855524   3.368284   3.075574   2.528877
    17  H    2.845286   3.505137   3.864804   2.505389   3.064367
                   16         17
    16  H    0.000000
    17  H    1.772761   0.000000
 Stoichiometry    C5H12
 Framework group  C1[X(C5H12)]
 Deg. of freedom    45
 Full point group                 C1      NOp   1
 Largest Abelian subgroup         C1      NOp   1
 Largest concise Abelian subgroup C1      NOp   1
                         Standard orientation:                         
 ---------------------------------------------------------------------
 Center     Atomic      Atomic             Coordinates (Angstroms)
 Number     Number       Type             X           Y           Z
 ---------------------------------------------------------------------
      1          6           0        1.757009   -0.719465   -0.364925
      2          6           0        1.114588    0.331421    0.563216
      3          6           0       -0.014575    1.146636   -0.084240
[...]
 ! A20   A(3,4,14)             109.7725         -DE/DX =    0.0                 !
 ! A21   A(3,4,15)             108.5903         -DE/DX =    0.0                 !
 ! A22   A(5,4,14)             109.5187         -DE/DX =    0.0                 !
 ! A23   A(5,4,15)             109.356          -DE/DX =    0.0                 !
 ! A24   A(14,4,15)            106.0009         -DE/DX =    0.0                 !
 ! A25   A(4,5,9)              111.2571         -DE/DX =    0.0                 !
 ! A26   A(4,5,16)             110.8607         -DE/DX =    0.0                 !
 ! A27   A(4,5,17)             111.5273         -DE/DX =    0.0                 !
 ! A28   A(9,5,16)             107.885          -DE/DX =    0.0                 !
 ! A29   A(9,5,17)             107.5514         -DE/DX =    0.0                 !
 ! A30   A(16,5,17)            107.5816         -DE/DX =    0.0                 !
 ! D1    D(6,1,2,3)            174.2118         -DE/DX =    0.0                 !
 ! D2    D(6,1,2,10)            52.9162         -DE/DX =    0.0                 !
 ! D3    D(6,1,2,11)           -62.8394         -DE/DX =    0.0                 !
 ! D4    D(7,1,2,3)            -65.7016         -DE/DX =    0.0                 !
 ! D5    D(7,1,2,10)           173.0029         -DE/DX =    0.0                 !
 ! D6    D(7,1,2,11)            57.2473         -DE/DX =    0.0                 !
 ! D7    D(8,1,2,3)             54.1508         -DE/DX =    0.0                 !
 ! D8    D(8,1,2,10)           -67.1447         -DE/DX =    0.0                 !
 ! D9    D(8,1,2,11)           177.0997         -DE/DX =    0.0                 !
 ! D10   D(1,2,3,4)             56.8109         -DE/DX =    0.0                 !
 ! D11   D(1,2,3,12)           -65.3679         -DE/DX =    0.0                 !
 ! D12   D(1,2,3,13)           178.969          -DE/DX =    0.0                 !
 ! D13   D(10,2,3,4)           178.5334         -DE/DX =    0.0                 !
 ! D14   D(10,2,3,12)           56.3546         -DE/DX =    0.0                 !
 ! D15   D(10,2,3,13)          -59.3085         -DE/DX =    0.0                 !
 ! D16   D(11,2,3,4)           -65.9958         -DE/DX =    0.0                 !
 ! D17   D(11,2,3,12)          171.8255         -DE/DX =    0.0                 !
 ! D18   D(11,2,3,13)           56.1624         -DE/DX =    0.0                 !
 ! D19   D(2,3,4,5)             56.8001         -DE/DX =    0.0                 !
 ! D20   D(2,3,4,14)           -66.0035         -DE/DX =    0.0                 !
 ! D21   D(2,3,4,15)           178.5316         -DE/DX =    0.0                 !
 ! D22   D(12,3,4,5)           178.961          -DE/DX =    0.0                 !
 ! D23   D(12,3,4,14)           56.1575         -DE/DX =    0.0                 !
 ! D24   D(12,3,4,15)          -59.3074         -DE/DX =    0.0                 !
 ! D25   D(13,3,4,5)           -65.3785         -DE/DX =    0.0                 !
 ! D26   D(13,3,4,14)          171.8179         -DE/DX =    0.0                 !
 ! D27   D(13,3,4,15)           56.353          -DE/DX =    0.0                 !
 ! D28   D(3,4,5,9)            174.1903         -DE/DX =    0.0                 !
 ! D29   D(3,4,5,16)            54.1314         -DE/DX =    0.0                 !
 ! D30   D(3,4,5,17)           -65.724          -DE/DX =    0.0                 !
 ! D31   D(14,4,5,9)           -62.8659         -DE/DX =    0.0                 !
 ! D32   D(14,4,5,16)          177.0752         -DE/DX =    0.0                 !
 ! D33   D(14,4,5,17)           57.2197         -DE/DX =    0.0                 !
 ! D34   D(15,4,5,9)            52.8881         -DE/DX =    0.0                 !
 ! D35   D(15,4,5,16)          -67.1708         -DE/DX =    0.0                 !
 ! D36   D(15,4,5,17)          172.9737         -DE/DX =    0.0                 !
 --------------------------------------------------------------------------------
 GradGradGradGradGradGradGradGradGradGradGradGradGradGradGradGradGradGrad

                          Input orientation:                          
 ---------------------------------------------------------------------
 Center     Atomic      Atomic             Coordinates (Angstroms)
 Number     Number       Type             X           Y           Z
 ---------------------------------------------------------------------
      1          6           0       -0.332397    0.233602    0.178008
      2          6           0        0.927446    1.002511   -0.216064
      3          6           0        1.871370    1.265080    0.961908
      4          6           0        2.329514    0.006044    1.705150
      5          6           0        3.018099   -1.014028    0.800161
      6          1           0       -1.027477    0.153619   -0.662724
      7          1           0       -0.095681   -0.783067    0.508595
      8          1           0       -0.854890    0.735758    1.000084
      9          1           0        3.421008   -1.849802    1.379386
     10          1           0        0.642646    1.964928   -0.656955
     11          1           0        1.459831    0.454923   -1.003407
     12          1           0        1.372561    1.936146    1.673520
     13          1           0        2.756004    1.802420    0.595566
     14          1           0        1.472002   -0.464448    2.201666
     15          1           0        3.016536    0.303482    2.505943
     16          1           0        3.847997   -0.552750    0.252937
     17          1           0        2.324430   -1.428418    0.061225
 ---------------------------------------------------------------------
                    Distance matrix (angstroms):
                    1          2          3          4          5
     1  C    0.000000
     2  C    1.527651   0.000000
     3  C    2.556372   1.532173   0.000000
     4  C    3.077291   2.578722   1.532147   0.000000
     5  C    3.628978   3.077332   2.556459   1.527646   0.000000
     6  H    1.093784   2.177578   3.504010   4.110717   4.457590
     7  H    1.094961   2.181790   2.875707   2.817093   3.135917
     8  H    1.095887   2.174142   2.777433   3.342160   4.254617
     9  H    4.457795   4.110839   3.504019   2.177532   1.093780
    10  H    2.155309   1.096240   2.149480   3.501755   4.079233
    11  H    2.157963   1.096903   2.165221   2.879952   2.799799
    12  H    2.835859   2.154142   1.097967   2.154542   3.489137
    13  H    3.489093   2.154582   1.097961   2.154074   2.836006
    14  H    2.799701   2.879918   2.165124   1.096913   2.157931
    15  H    4.079157   3.501751   2.149446   1.096238   2.155349
    16  H    4.254369   3.341918   2.777444   2.174158   1.095884
    17  H    3.136030   2.817422   2.876008   2.181788   1.094953
                    6          7          8          9         10
     6  H    0.000000
     7  H    1.765676   0.000000
     8  H    1.770199   1.767708   0.000000
     9  H    5.288944   3.776679   5.011217   0.000000
    10  H    2.463774   3.074916   2.549363   5.139858   0.000000
    11  H    2.528547   2.497677   3.074212   3.851711   1.751552
    12  H    3.794156   3.302561   2.618394   4.314632   2.442277
    13  H    4.314692   3.850249   3.786814   3.794117   2.462012
    14  H    3.851510   2.329300   2.880750   2.528630   3.842058
    15  H    5.139742   3.854333   4.176411   2.463607   4.289485
    16  H    5.010752   3.958661   4.933115   1.770184   4.176228
    17  H    3.776536   2.544318   3.958938   1.765672   3.854734
                   11         12         13         14         15
    11  H    0.000000
    12  H    3.060649   0.000000
    13  H    2.460189   1.758915   0.000000
    14  H    3.334349   2.460016   3.060540   0.000000
    15  H    3.842110   2.461945   2.442178   1.751538   0.000000
    16  H    2.880476   3.786877   2.618524   3.074197   2.549608
    17  H    2.329795   3.850434   3.303042   2.497470   3.074920
                   16         17
    16  H    0.000000
    17  H    1.767711   0.000000
 Stoichiometry    C5H12
 Framework group  C1[X(C5H12)]
 Deg. of freedom    45
 Full point group                 C1      NOp   1
 Largest Abelian subgroup         C1      NOp   1
 Largest concise Abelian subgroup C1      NOp   1
                         Standard orientation:                         
 ---------------------------------------------------------------------
 Center     Atomic      Atomic             Coordinates (Angstroms)
 Number     Number       Type             X           Y           Z
 ---------------------------------------------------------------------
      1          6           0        1.779326   -0.715449   -0.355389
      2          6           0        1.127537    0.257614    0.625445
      3          6           0        0.000043    1.085350    0.000013
      4          6           0       -1.127526    0.257715   -0.625353
      5          6           0       -1.779376   -0.715455    0.355327
      6          1           0        2.642614   -1.213758    0.094928
      7          1           0        1.078430   -1.493661   -0.674874
      8          1           0        2.124124   -0.191360   -1.253951
      9          1           0       -2.642919   -1.213319   -0.094986
     10          1           0        1.888358    0.942879    1.016988
     11          1           0        0.744938   -0.296210    1.491524
     12          1           0        0.426964    1.742642   -0.768907
     13          1           0       -0.426854    1.742714    0.768876
     14          1           0       -0.744908   -0.296059   -1.491468
     15          1           0       -1.888274    0.943051   -1.016908
     16          1           0       -2.123831   -0.191572    1.254136
     17          1           0       -1.078665   -1.493998    0.674382
 ---------------------------------------------------------------------
 Rotational constants (GHZ):           7.4421794           3.0634598           2.7417983

 **********************************************************************

            Population analysis using the SCF density.

 **********************************************************************

 Orbital symmetries:
       Occupied  (A) (A) (A) (A) (A) (A) (A) (A) (A) (A) (A) (A)
                 (A) (A) (A) (A) (A) (A) (A) (A) (A)
       Virtual   (A) (A) (A) (A) (A) (A) (A) (A) (A) (A) (A) (A)
                 (A) (A) (A) (A) (A) (A) (A) (A) (A) (A) (A) (A)
                 (A) (A) (A) (A) (A) (A) (A) (A) (A) (A) (A) (A)
                 (A) (A) (A) (A) (A) (A) (A) (A) (A) (A) (A) (A)
                 (A) (A) (A) (A) (A) (A) (A) (A) (A) (A) (A) (A)
                 (A) (A) (A) (A) (A) (A) (A) (A) (A) (A) (A) (A)
                 (A) (A) (A) (A) (A) (A)
 The electronic state is 1-A.
 Alpha  occ. eigenvalues --  -10.53387 -10.53384 -10.53246 -10.52803 -10.52803
 Alpha  occ. eigenvalues --   -0.89885  -0.83501  -0.76388  -0.69816  -0.62667
 Alpha  occ. eigenvalues --   -0.53487  -0.52981  -0.47811  -0.46578  -0.46230
 Alpha  occ. eigenvalues --   -0.42466  -0.41225  -0.40517  -0.37333  -0.36825
 Alpha  occ. eigenvalues --   -0.36696
 Alpha virt. eigenvalues --    0.12219   0.16808   0.17626   0.18478   0.19583
 Alpha virt. eigenvalues --    0.21416   0.21617   0.22897   0.23689   0.25255
 Alpha virt. eigenvalues --    0.25999   0.26830   0.27607   0.28395   0.29355
 Alpha virt. eigenvalues --    0.34974   0.55615   0.55774   0.56997   0.58082
 Alpha virt. eigenvalues --    0.60324   0.62876   0.67881   0.70484   0.73890
 Alpha virt. eigenvalues --    0.74575   0.76409   0.80512   0.82393   0.92311
 Alpha virt. eigenvalues --    0.93529   0.94618   0.95003   0.95898   0.96233
 Alpha virt. eigenvalues --    0.97316   1.00861   1.01580   1.04446   1.04638
 Alpha virt. eigenvalues --    1.06092   1.06772   1.08781   1.12347   1.26982
 Alpha virt. eigenvalues --    1.47889   1.49753   1.54858   1.59157   1.66049
 Alpha virt. eigenvalues --    1.67156   1.71430   1.80190   1.88303   1.99661
 Alpha virt. eigenvalues --    2.01404   2.01760   2.05541   2.07048   2.12571
 Alpha virt. eigenvalues --    2.18436   2.23381   2.33281   2.36618   2.37922
 Alpha virt. eigenvalues --    2.38980   2.41651   2.48179   2.49268   2.58010
 Alpha virt. eigenvalues --    2.68058   2.69197   2.76304   4.15211   4.24832
 Alpha virt. eigenvalues --    4.38260   4.46028   4.55824
          Condensed to atoms (all electrons):
               1          2          3          4          5          6
     1  C    5.106340   0.360690  -0.055181  -0.002360  -0.003327   0.383140
     2  C    0.360690   5.025280   0.372161  -0.053233  -0.002357  -0.030319
     3  C   -0.055181   0.372161   5.041539   0.372164  -0.055167   0.004528
     4  C   -0.002360  -0.053233   0.372164   5.025290   0.360688   0.000104
     5  C   -0.003327  -0.002357  -0.055167   0.360688   5.106321   0.000003
     6  H    0.383140  -0.030319   0.004528   0.000104   0.000003   0.545466
     7  H    0.382930  -0.033666  -0.006437   0.003626   0.000146  -0.028869
     8  H    0.383935  -0.038808  -0.002683  -0.001444   0.000215  -0.028363
     9  H    0.000003   0.000104   0.004527  -0.030321   0.383142   0.000000
    10  H   -0.039523   0.389363  -0.036380   0.005245  -0.000006  -0.003800
    11  H   -0.040771   0.385356  -0.037107  -0.008100   0.004959  -0.002019
    12  H   -0.005051  -0.039662   0.383500  -0.038958   0.005289  -0.000056
    13  H    0.005289  -0.038955   0.383496  -0.039668  -0.005050  -0.000131
    14  H    0.004957  -0.008100  -0.037120   0.385356  -0.040776  -0.000040
    15  H   -0.000006   0.005245  -0.036381   0.389364  -0.039520  -0.000001
    16  H    0.000215  -0.001444  -0.002684  -0.038810   0.383934   0.000000
    17  H    0.000147   0.003624  -0.006431  -0.033661   0.382931  -0.000060
               7          8          9         10         11         12
     1  C    0.382930   0.383935   0.000003  -0.039523  -0.040771  -0.005051
     2  C   -0.033666  -0.038808   0.000104   0.389363   0.385356  -0.039662
     3  C   -0.006437  -0.002683   0.004527  -0.036380  -0.037107   0.383500
     4  C    0.003626  -0.001444  -0.030321   0.005245  -0.008100  -0.038958
     5  C    0.000146   0.000215   0.383142  -0.000006   0.004959   0.005289
     6  H   -0.028869  -0.028363   0.000000  -0.003800  -0.002019  -0.000056
     7  H    0.554531  -0.030823  -0.000060   0.004764  -0.005226  -0.000157
     8  H   -0.030823   0.556400   0.000000  -0.003388   0.005035   0.004592
     9  H   -0.000060   0.000000   0.545465  -0.000001  -0.000040  -0.000131
    10  H    0.004764  -0.003388  -0.000001   0.574099  -0.034779  -0.004442
    11  H   -0.005226   0.005035  -0.000040  -0.034779   0.580282   0.005326
    12  H   -0.000157   0.004592  -0.000131  -0.004442   0.005326   0.583035
    13  H   -0.000065   0.000011  -0.000056  -0.002909  -0.003538  -0.032260
    14  H   -0.000014   0.000430  -0.002017  -0.000053   0.000082  -0.003540
    15  H    0.000026  -0.000041  -0.003804  -0.000112  -0.000053  -0.002908
    16  H   -0.000042  -0.000004  -0.028365  -0.000041   0.000431   0.000011
    17  H    0.002437  -0.000042  -0.028869   0.000026  -0.000016  -0.000065
              13         14         15         16         17
     1  C    0.005289   0.004957  -0.000006   0.000215   0.000147
     2  C   -0.038955  -0.008100   0.005245  -0.001444   0.003624
     3  C    0.383496  -0.037120  -0.036381  -0.002684  -0.006431
     4  C   -0.039668   0.385356   0.389364  -0.038810  -0.033661
     5  C   -0.005050  -0.040776  -0.039520   0.383934   0.382931
     6  H   -0.000131  -0.000040  -0.000001   0.000000  -0.000060
     7  H   -0.000065  -0.000014   0.000026  -0.000042   0.002437
     8  H    0.000011   0.000430  -0.000041  -0.000004  -0.000042
     9  H   -0.000056  -0.002017  -0.003804  -0.028365  -0.028869
    10  H   -0.002909  -0.000053  -0.000112  -0.000041   0.000026
    11  H   -0.003538   0.000082  -0.000053   0.000431  -0.000016
    12  H   -0.032260  -0.003540  -0.002908   0.000011  -0.000065
    13  H    0.583040   0.005328  -0.004444   0.004592  -0.000157
    14  H    0.005328   0.580314  -0.034779   0.005036  -0.005231
    15  H   -0.004444  -0.034779   0.574098  -0.003384   0.004764
    16  H    0.004592   0.005036  -0.003384   0.556400  -0.030821
    17  H   -0.000157  -0.005231   0.004764  -0.030821   0.554522
 Mulliken charges:
               1
     1  C   -0.481427
     2  C   -0.295280
     3  C   -0.286344
     4  C   -0.295283
     5  C   -0.481425
     6  H    0.160416
     7  H    0.156898
     8  H    0.154976
     9  H    0.160419
    10  H    0.151936
    11  H    0.150178
    12  H    0.145478
    13  H    0.145477
    14  H    0.150169
    15  H    0.151936
    16  H    0.154976
    17  H    0.156901
 Sum of Mulliken charges =   0.00000
 Mulliken charges with hydrogens summed into heavy atoms:
               1
     1  C   -0.009138
     2  C    0.006834
     3  C    0.004610
     4  C    0.006822
     5  C   -0.009129
 Electronic spatial extent (au):  <R**2>=            558.7951
 Charge=              0.0000 electrons
 Dipole moment (field-independent basis, Debye):
    X=             -0.0000    Y=              0.0398    Z=             -0.0000  Tot=              0.0398
 Quadrupole moment (field-independent basis, Debye-Ang):
   XX=            -34.7954   YY=            -34.9724   ZZ=            -34.9785
   XY=             -0.0000   XZ=              0.1288   YZ=             -0.0002
 Traceless Quadrupole moment (field-independent basis, Debye-Ang):
   XX=              0.1200   YY=             -0.0569   ZZ=             -0.0631
   XY=             -0.0000   XZ=              0.1288   YZ=             -0.0002
 Octapole moment (field-independent basis, Debye-Ang**2):
  XXX=             -0.0009  YYY=              0.0401  ZZZ=              0.0007  XYY=              0.0003
  XXY=              0.5976  XXZ=             -0.0003  XZZ=              0.0000  YZZ=              0.5817
  YYZ=             -0.0001  XYZ=             -1.0369
 Hexadecapole moment (field-independent basis, Debye-Ang**3):
 XXXX=           -464.4623 YYYY=           -182.4595 ZZZZ=           -123.4052 XXXY=              0.0007
 XXXZ=              4.7792 YYYX=             -0.0015 YYYZ=             -0.0009 ZZZX=             -1.7079
 ZZZY=             -0.0005 XXYY=           -106.8306 XXZZ=            -98.4587 YYZZ=            -50.0217
 XXYZ=             -0.0008 YYXZ=              1.5935 ZZXY=              0.0001
 N-N= 1.918445724173D+02 E-N=-8.397234340227D+02  KE= 1.958206228996D+02
 1\1\GINC-ROBERTS-MACBOOK-PRO-2\FOpt\RM062X\6-31G(d)\C5H12\ROBERT.PATON
 \21-Sep-2018\0\\# opt=(maxcycles=160) M062X/6-31G(d) emp=GD3\\Generate
 d by prepare_file.py\\0,1\C,-0.3323972537,0.2336024364,0.1780076746\C,
 0.9274457633,1.0025108188,-0.2160636916\C,1.8713701812,1.2650795385,0.
 9619078865\C,2.3295143489,0.0060444452,1.7051504009\C,3.0180986223,-1.
 0140282801,0.8001610878\H,-1.0274766018,0.1536191192,-0.6627241501\H,-
 0.0956809707,-0.7830674418,0.5085946631\H,-0.8548901056,0.7357582223,1
 .000084359\H,3.4210081196,-1.8498016636,1.3793863445\H,0.6426460538,1.
 9649278337,-0.6569545006\H,1.4598310593,0.4549234201,-1.0034071456\H,1
 .3725611951,1.9361460293,1.6735197701\H,2.7560044666,1.8024198932,0.59
 55663195\H,1.4720024943,-0.4644483528,2.2016656418\H,3.0165357886,0.30
 34818915,2.5059434127\H,3.8479965939,-0.5527502186,0.2529369827\H,2.32
 44302449,-1.4284176913,0.0612249448\\Version=EM64M-G16RevA.03\State=1-
 A\HF=-197.6495828\RMSD=2.703e-09\RMSF=7.868e-06\Dipole=0.0046066,0.014
 4032,0.0041217\Quadrupole=-0.0161842,-0.0152722,0.0314564,-0.0372673,0
 .1009473,-0.0531473\PG=C01 [X(C5H12)]\\@


 WOE UNTO THEM THAT CALL EVIL GOOD, AND GOOD EVIL      
 Job cpu time:       0 days  0 hours 37 minutes 33.8 seconds.
 Elapsed time:       0 days  0 hours 10 minutes 52.5 seconds.
 File lengths (MBytes):  RWF=     10 Int=      0 D2E=      0 Chk=      2 Scr=      1
 Normal termination of Gaussian 16 at Fri Sep 21 23:52:52 2018.
